# LAMMPS data file written by OVITO Basic 3.3.0
70308 atoms
1 atom types
0.0 365.526649109 xlo xhi
0.0 359.4251725127 ylo yhi
0.0 7.4112221492 zlo zhi

Masses

1 95.96  # Mo

Atoms  # atomic

1 1 0.0 0.0 0.0
2 1 0.0 2.1394352099 3.7056110746
3 1 1.7531242891 0.0 2.4704073576
4 1 1.7531242891 2.1394352099 6.1760184323
5 1 0.8765621493 2.1394352099 1.235203717
6 1 0.8765621493 0.0 4.9408147915
7 1 2.6296864384 0.0 0.0
8 1 2.6296864384 2.1394352099 3.7056110746
9 1 4.3828143872 0.0 2.4704073576
10 1 4.3828143872 2.1394352099 6.1760184323
11 1 3.5062522379 2.1394352099 1.235203717
12 1 3.5062522379 0.0 4.9408147915
13 1 5.2593765365 0.0 0.0
14 1 5.2593765365 2.1394352099 3.7056110746
15 1 7.0125008256 0.0 2.4704073576
16 1 7.0125008256 2.1394352099 6.1760184323
17 1 6.1359386857 2.1394352099 1.235203717
18 1 6.1359386857 0.0 4.9408147915
19 1 7.8890629748 0.0 0.0
20 1 7.8890629748 2.1394352099 3.7056110746
21 1 9.6421909236 0.0 2.4704073576
22 1 9.6421909236 2.1394352099 6.1760184323
23 1 8.7656287744 2.1394352099 1.235203717
24 1 8.7656287744 0.0 4.9408147915
25 1 10.5187530729 0.0 0.0
26 1 10.5187530729 2.1394352099 3.7056110746
27 1 12.271877362 0.0 2.4704073576
28 1 12.271877362 2.1394352099 6.1760184323
29 1 11.3953152222 2.1394352099 1.235203717
30 1 11.3953152222 0.0 4.9408147915
31 1 13.1484395113 0.0 0.0
32 1 13.1484395113 2.1394352099 3.7056110746
33 1 14.9015674601 0.0 2.4704073576
34 1 14.9015674601 2.1394352099 6.1760184323
35 1 14.0250016606 2.1394352099 1.235203717
36 1 14.0250016606 0.0 4.9408147915
37 1 15.7781296095 0.0 0.0
38 1 15.7781296095 2.1394352099 3.7056110746
39 1 17.5312538985 0.0 2.4704073576
40 1 17.5312538985 2.1394352099 6.1760184323
41 1 16.6546917492 2.1394352099 1.235203717
42 1 16.6546917492 0.0 4.9408147915
43 1 18.4078160478 0.0 0.0
44 1 18.4078160478 2.1394352099 3.7056110746
45 1 20.1609439967 0.0 2.4704073576
46 1 20.1609439967 2.1394352099 6.1760184323
47 1 19.284378197 2.1394352099 1.235203717
48 1 19.284378197 0.0 4.9408147915
49 1 21.0375061459 0.0 0.0
50 1 21.0375061459 2.1394352099 3.7056110746
51 1 22.7906304349 0.0 2.4704073576
52 1 22.7906304349 2.1394352099 6.1760184323
53 1 21.9140682857 2.1394352099 1.235203717
54 1 21.9140682857 0.0 4.9408147915
55 1 23.6671925843 0.0 0.0
56 1 23.6671925843 2.1394352099 3.7056110746
57 1 25.4203168733 0.0 2.4704073576
58 1 25.4203168733 2.1394352099 6.1760184323
59 1 24.543754724 2.1394352099 1.235203717
60 1 24.543754724 0.0 4.9408147915
61 1 26.2968826728 0.0 0.0
62 1 26.2968826728 2.1394352099 3.7056110746
63 1 28.0500069715 0.0 2.4704073576
64 1 28.0500069715 2.1394352099 6.1760184323
65 1 27.1734448222 2.1394352099 1.235203717
66 1 27.1734448222 0.0 4.9408147915
67 1 28.9265691208 0.0 0.0
68 1 28.9265691208 2.1394352099 3.7056110746
69 1 30.6796934098 0.0 2.4704073576
70 1 30.6796934098 2.1394352099 6.1760184323
71 1 29.8031312605 2.1394352099 1.235203717
72 1 29.8031312605 0.0 4.9408147915
73 1 31.5562592094 0.0 0.0
74 1 31.5562592094 2.1394352099 3.7056110746
75 1 33.309383508 0.0 2.4704073576
76 1 33.309383508 2.1394352099 6.1760184323
77 1 32.4328213587 2.1394352099 1.235203717
78 1 32.4328213587 0.0 4.9408147915
79 1 34.1859456572 0.0 0.0
80 1 34.1859456572 2.1394352099 3.7056110746
81 1 35.9390699463 0.0 2.4704073576
82 1 35.9390699463 2.1394352099 6.1760184323
83 1 35.062507797 2.1394352099 1.235203717
84 1 35.062507797 0.0 4.9408147915
85 1 36.8156320956 0.0 0.0
86 1 36.8156320956 2.1394352099 3.7056110746
87 1 38.5687600444 0.0 2.4704073576
88 1 38.5687600444 2.1394352099 6.1760184323
89 1 37.6921978951 2.1394352099 1.235203717
90 1 37.6921978951 0.0 4.9408147915
91 1 39.4453221842 0.0 0.0
92 1 39.4453221842 2.1394352099 3.7056110746
93 1 41.1984464828 0.0 2.4704073576
94 1 41.1984464828 2.1394352099 6.1760184323
95 1 40.3218843335 2.1394352099 1.235203717
96 1 40.3218843335 0.0 4.9408147915
97 1 42.0750086321 0.0 0.0
98 1 42.0750086321 2.1394352099 3.7056110746
99 1 43.8281365809 0.0 2.4704073576
100 1 43.8281365809 2.1394352099 6.1760184323
101 1 42.9515744316 2.1394352099 1.235203717
102 1 42.9515744316 0.0 4.9408147915
103 1 44.7046987207 0.0 0.0
104 1 44.7046987207 2.1394352099 3.7056110746
105 1 46.4578230193 0.0 2.4704073576
106 1 46.4578230193 2.1394352099 6.1760184323
107 1 45.58126087 2.1394352099 1.235203717
108 1 45.58126087 0.0 4.9408147915
109 1 47.3343851591 0.0 0.0
110 1 47.3343851591 2.1394352099 3.7056110746
111 1 49.0875131079 0.0 2.4704073576
112 1 49.0875131079 2.1394352099 6.1760184323
113 1 48.2109473083 2.1394352099 1.235203717
114 1 48.2109473083 0.0 4.9408147915
115 1 49.9640752572 0.0 0.0
116 1 49.9640752572 2.1394352099 3.7056110746
117 1 51.7171995557 0.0 2.4704073576
118 1 51.7171995557 2.1394352099 6.1760184323
119 1 50.8406374064 2.1394352099 1.235203717
120 1 50.8406374064 0.0 4.9408147915
121 1 52.5937616955 0.0 0.0
122 1 52.5937616955 2.1394352099 3.7056110746
123 1 54.3468896443 0.0 2.4704073576
124 1 54.3468896443 2.1394352099 6.1760184323
125 1 53.4703238448 2.1394352099 1.235203717
126 1 53.4703238448 0.0 4.9408147915
127 1 55.2234517936 0.0 0.0
128 1 55.2234517936 2.1394352099 3.7056110746
129 1 56.9765760922 0.0 2.4704073576
130 1 56.9765760922 2.1394352099 6.1760184323
131 1 56.1000139429 2.1394352099 1.235203717
132 1 56.1000139429 0.0 4.9408147915
133 1 57.853138232 0.0 0.0
134 1 57.853138232 2.1394352099 3.7056110746
135 1 59.6062625306 0.0 2.4704073576
136 1 59.6062625306 2.1394352099 6.1760184323
137 1 58.7297003813 2.1394352099 1.235203717
138 1 58.7297003813 0.0 4.9408147915
139 1 60.4828283301 0.0 0.0
140 1 60.4828283301 2.1394352099 3.7056110746
141 1 62.2359526192 0.0 2.4704073576
142 1 62.2359526192 2.1394352099 6.1760184323
143 1 61.3593904794 2.1394352099 1.235203717
144 1 61.3593904794 0.0 4.9408147915
145 1 63.1125147684 0.0 0.0
146 1 63.1125147684 2.1394352099 3.7056110746
147 1 64.865639067 0.0 2.4704073576
148 1 64.865639067 2.1394352099 6.1760184323
149 1 63.9890769177 2.1394352099 1.235203717
150 1 63.9890769177 0.0 4.9408147915
151 1 65.7422048666 0.0 0.0
152 1 65.7422048666 2.1394352099 3.7056110746
153 1 67.4953291556 0.0 2.4704073576
154 1 67.4953291556 2.1394352099 6.1760184323
155 1 66.6187670159 2.1394352099 1.235203717
156 1 66.6187670159 0.0 4.9408147915
157 1 68.3718913049 0.0 0.0
158 1 68.3718913049 2.1394352099 3.7056110746
159 1 70.1250156035 0.0 2.4704073576
160 1 70.1250156035 2.1394352099 6.1760184323
161 1 69.2484534542 2.1394352099 1.235203717
162 1 69.2484534542 0.0 4.9408147915
163 1 71.0015777433 0.0 0.0
164 1 71.0015777433 2.1394352099 3.7056110746
165 1 72.7547056921 0.0 2.4704073576
166 1 72.7547056921 2.1394352099 6.1760184323
167 1 71.8781435428 2.1394352099 1.235203717
168 1 71.8781435428 0.0 4.9408147915
169 1 73.6312678414 0.0 0.0
170 1 73.6312678414 2.1394352099 3.7056110746
171 1 75.3843921305 0.0 2.4704073576
172 1 75.3843921305 2.1394352099 6.1760184323
173 1 74.5078299908 2.1394352099 1.235203717
174 1 74.5078299908 0.0 4.9408147915
175 1 76.2609542797 0.0 0.0
176 1 76.2609542797 2.1394352099 3.7056110746
177 1 78.0140822287 0.0 2.4704073576
178 1 78.0140822287 2.1394352099 6.1760184323
179 1 77.1375200793 2.1394352099 1.235203717
180 1 77.1375200793 0.0 4.9408147915
181 1 78.8906443779 0.0 0.0
182 1 78.8906443779 2.1394352099 3.7056110746
183 1 80.6437686669 0.0 2.4704073576
184 1 80.6437686669 2.1394352099 6.1760184323
185 1 79.7672065272 2.1394352099 1.235203717
186 1 79.7672065272 0.0 4.9408147915
187 1 81.5203308162 0.0 0.0
188 1 81.5203308162 2.1394352099 3.7056110746
189 1 83.2734587651 0.0 2.4704073576
190 1 83.2734587651 2.1394352099 6.1760184323
191 1 82.3968929656 2.1394352099 1.235203717
192 1 82.3968929656 0.0 4.9408147915
193 1 84.1500209144 0.0 0.0
194 1 84.1500209144 2.1394352099 3.7056110746
195 1 85.9031452035 0.0 2.4704073576
196 1 85.9031452035 2.1394352099 6.1760184323
197 1 85.0265830541 2.1394352099 1.235203717
198 1 85.0265830541 0.0 4.9408147915
199 1 86.7797073528 0.0 0.0
200 1 86.7797073528 2.1394352099 3.7056110746
201 1 88.5328353016 0.0 2.4704073576
202 1 88.5328353016 2.1394352099 6.1760184323
203 1 87.656269502 2.1394352099 1.235203717
204 1 87.656269502 0.0 4.9408147915
205 1 89.4093974509 0.0 0.0
206 1 89.4093974509 2.1394352099 3.7056110746
207 1 91.1625217399 0.0 2.4704073576
208 1 91.1625217399 2.1394352099 6.1760184323
209 1 90.2859595907 2.1394352099 1.235203717
210 1 90.2859595907 0.0 4.9408147915
211 1 92.0390838892 0.0 0.0
212 1 92.0390838892 2.1394352099 3.7056110746
213 1 93.7922081782 0.0 2.4704073576
214 1 93.7922081782 2.1394352099 6.1760184323
215 1 92.9156460385 2.1394352099 1.235203717
216 1 92.9156460385 0.0 4.9408147915
217 1 94.6687739873 0.0 0.0
218 1 94.6687739873 2.1394352099 3.7056110746
219 1 96.4218982764 0.0 2.4704073576
220 1 96.4218982764 2.1394352099 6.1760184323
221 1 95.5453361271 2.1394352099 1.235203717
222 1 95.5453361271 0.0 4.9408147915
223 1 97.2984604257 0.0 0.0
224 1 97.2984604257 2.1394352099 3.7056110746
225 1 99.0515847148 0.0 2.4704073576
226 1 99.0515847148 2.1394352099 6.1760184323
227 1 98.1750225655 2.1394352099 1.235203717
228 1 98.1750225655 0.0 4.9408147915
229 1 99.9281468641 0.0 0.0
230 1 99.9281468641 2.1394352099 3.7056110746
231 1 101.6812748129 0.0 2.4704073576
232 1 101.6812748129 2.1394352099 6.1760184323
233 1 100.8047126636 2.1394352099 1.235203717
234 1 100.8047126636 0.0 4.9408147915
235 1 102.5578369622 0.0 0.0
236 1 102.5578369622 2.1394352099 3.7056110746
237 1 104.3109612512 0.0 2.4704073576
238 1 104.3109612512 2.1394352099 6.1760184323
239 1 103.434399102 2.1394352099 1.235203717
240 1 103.434399102 0.0 4.9408147915
241 1 105.1875234005 0.0 0.0
242 1 105.1875234005 2.1394352099 3.7056110746
243 1 106.9406513493 0.0 2.4704073576
244 1 106.9406513493 2.1394352099 6.1760184323
245 1 106.0640892001 2.1394352099 1.235203717
246 1 106.0640892001 0.0 4.9408147915
247 1 107.8172134891 0.0 0.0
248 1 107.8172134891 2.1394352099 3.7056110746
249 1 109.5703377877 0.0 2.4704073576
250 1 109.5703377877 2.1394352099 6.1760184323
251 1 108.6937756384 2.1394352099 1.235203717
252 1 108.6937756384 0.0 4.9408147915
253 1 110.446899937 0.0 0.0
254 1 110.446899937 2.1394352099 3.7056110746
255 1 112.2000278858 0.0 2.4704073576
256 1 112.2000278858 2.1394352099 6.1760184323
257 1 111.3234620768 2.1394352099 1.235203717
258 1 111.3234620768 0.0 4.9408147915
259 1 113.0765900256 0.0 0.0
260 1 113.0765900256 2.1394352099 3.7056110746
261 1 114.8297143242 0.0 2.4704073576
262 1 114.8297143242 2.1394352099 6.1760184323
263 1 113.9531521749 2.1394352099 1.235203717
264 1 113.9531521749 0.0 4.9408147915
265 1 115.7062764734 0.0 0.0
266 1 115.7062764734 2.1394352099 3.7056110746
267 1 117.4594044224 0.0 2.4704073576
268 1 117.4594044224 2.1394352099 6.1760184323
269 1 116.5828386133 2.1394352099 1.235203717
270 1 116.5828386133 0.0 4.9408147915
271 1 118.3359665621 0.0 0.0
272 1 118.3359665621 2.1394352099 3.7056110746
273 1 120.0890908606 0.0 2.4704073576
274 1 120.0890908606 2.1394352099 6.1760184323
275 1 119.2125287113 2.1394352099 1.235203717
276 1 119.2125287113 0.0 4.9408147915
277 1 120.9656530004 0.0 0.0
278 1 120.9656530004 2.1394352099 3.7056110746
279 1 122.718777299 0.0 2.4704073576
280 1 122.718777299 2.1394352099 6.1760184323
281 1 121.8422151497 2.1394352099 1.235203717
282 1 121.8422151497 0.0 4.9408147915
283 1 123.5953430985 0.0 0.0
284 1 123.5953430985 2.1394352099 3.7056110746
285 1 125.3484673972 0.0 2.4704073576
286 1 125.3484673972 2.1394352099 6.1760184323
287 1 124.4719052479 2.1394352099 1.235203717
288 1 124.4719052479 0.0 4.9408147915
289 1 126.2250295369 0.0 0.0
290 1 126.2250295369 2.1394352099 3.7056110746
291 1 127.9781538355 0.0 2.4704073576
292 1 127.9781538355 2.1394352099 6.1760184323
293 1 127.1015916862 2.1394352099 1.235203717
294 1 127.1015916862 0.0 4.9408147915
295 1 128.8547196351 0.0 0.0
296 1 128.8547196351 2.1394352099 3.7056110746
297 1 130.6078439241 0.0 2.4704073576
298 1 130.6078439241 2.1394352099 6.1760184323
299 1 129.7312817844 2.1394352099 1.235203717
300 1 129.7312817844 0.0 4.9408147915
301 1 131.4844060734 0.0 0.0
302 1 131.4844060734 2.1394352099 3.7056110746
303 1 133.237530372 0.0 2.4704073576
304 1 133.237530372 2.1394352099 6.1760184323
305 1 132.3609682226 2.1394352099 1.235203717
306 1 132.3609682226 0.0 4.9408147915
307 1 134.1140925117 0.0 0.0
308 1 134.1140925117 2.1394352099 3.7056110746
309 1 135.8672204605 0.0 2.4704073576
310 1 135.8672204605 2.1394352099 6.1760184323
311 1 134.9906583208 2.1394352099 1.235203717
312 1 134.9906583208 0.0 4.9408147915
313 1 136.7437826099 0.0 0.0
314 1 136.7437826099 2.1394352099 3.7056110746
315 1 138.4969069085 0.0 2.4704073576
316 1 138.4969069085 2.1394352099 6.1760184323
317 1 137.6203447592 2.1394352099 1.235203717
318 1 137.6203447592 0.0 4.9408147915
319 1 139.3734690482 0.0 0.0
320 1 139.3734690482 2.1394352099 3.7056110746
321 1 141.1265969971 0.0 2.4704073576
322 1 141.1265969971 2.1394352099 6.1760184323
323 1 140.2500348573 2.1394352099 1.235203717
324 1 140.2500348573 0.0 4.9408147915
325 1 142.0031591464 0.0 0.0
326 1 142.0031591464 2.1394352099 3.7056110746
327 1 143.7562834354 0.0 2.4704073576
328 1 143.7562834354 2.1394352099 6.1760184323
329 1 142.8797212957 2.1394352099 1.235203717
330 1 142.8797212957 0.0 4.9408147915
331 1 144.6328455848 0.0 0.0
332 1 144.6328455848 2.1394352099 3.7056110746
333 1 146.3859735336 0.0 2.4704073576
334 1 146.3859735336 2.1394352099 6.1760184323
335 1 145.509407734 2.1394352099 1.235203717
336 1 145.509407734 0.0 4.9408147915
337 1 147.2625356828 0.0 0.0
338 1 147.2625356828 2.1394352099 3.7056110746
339 1 149.0156599719 0.0 2.4704073576
340 1 149.0156599719 2.1394352099 6.1760184323
341 1 148.1390978321 2.1394352099 1.235203717
342 1 148.1390978321 0.0 4.9408147915
343 1 149.8922221212 0.0 0.0
344 1 149.8922221212 2.1394352099 3.7056110746
345 1 151.64535007 0.0 2.4704073576
346 1 151.64535007 2.1394352099 6.1760184323
347 1 150.7687842705 2.1394352099 1.235203717
348 1 150.7687842705 0.0 4.9408147915
349 1 152.5219122193 0.0 0.0
350 1 152.5219122193 2.1394352099 3.7056110746
351 1 154.2750365084 0.0 2.4704073576
352 1 154.2750365084 2.1394352099 6.1760184323
353 1 153.3984743686 2.1394352099 1.235203717
354 1 153.3984743686 0.0 4.9408147915
355 1 155.1515986577 0.0 0.0
356 1 155.1515986577 2.1394352099 3.7056110746
357 1 156.9047229468 0.0 2.4704073576
358 1 156.9047229468 2.1394352099 6.1760184323
359 1 156.028160807 2.1394352099 1.235203717
360 1 156.028160807 0.0 4.9408147915
361 1 157.7812887558 0.0 0.0
362 1 157.7812887558 2.1394352099 3.7056110746
363 1 159.5344130449 0.0 2.4704073576
364 1 159.5344130449 2.1394352099 6.1760184323
365 1 158.6578508956 2.1394352099 1.235203717
366 1 158.6578508956 0.0 4.9408147915
367 1 160.4109751941 0.0 0.0
368 1 160.4109751941 2.1394352099 3.7056110746
369 1 162.1640994832 0.0 2.4704073576
370 1 162.1640994832 2.1394352099 6.1760184323
371 1 161.2875373434 2.1394352099 1.235203717
372 1 161.2875373434 0.0 4.9408147915
373 1 163.0406652923 0.0 0.0
374 1 163.0406652923 2.1394352099 3.7056110746
375 1 164.7937895813 0.0 2.4704073576
376 1 164.7937895813 2.1394352099 6.1760184323
377 1 163.917227432 2.1394352099 1.235203717
378 1 163.917227432 0.0 4.9408147915
379 1 165.6703517306 0.0 0.0
380 1 165.6703517306 2.1394352099 3.7056110746
381 1 167.4234760197 0.0 2.4704073576
382 1 167.4234760197 2.1394352099 6.1760184323
383 1 166.5469138704 2.1394352099 1.235203717
384 1 166.5469138704 0.0 4.9408147915
385 1 168.300038169 0.0 0.0
386 1 168.300038169 2.1394352099 3.7056110746
387 1 170.0531661178 0.0 2.4704073576
388 1 170.0531661178 2.1394352099 6.1760184323
389 1 169.1766039685 2.1394352099 1.235203717
390 1 169.1766039685 0.0 4.9408147915
391 1 170.9297282671 0.0 0.0
392 1 170.9297282671 2.1394352099 3.7056110746
393 1 172.6828525562 0.0 2.4704073576
394 1 172.6828525562 2.1394352099 6.1760184323
395 1 171.8062904069 2.1394352099 1.235203717
396 1 171.8062904069 0.0 4.9408147915
397 1 173.5594147054 0.0 0.0
398 1 173.5594147054 2.1394352099 3.7056110746
399 1 175.3125426543 0.0 2.4704073576
400 1 175.3125426543 2.1394352099 6.1760184323
401 1 174.435980505 2.1394352099 1.235203717
402 1 174.435980505 0.0 4.9408147915
403 1 176.1891048036 0.0 0.0
404 1 176.1891048036 2.1394352099 3.7056110746
405 1 177.9422290926 0.0 2.4704073576
406 1 177.9422290926 2.1394352099 6.1760184323
407 1 177.0656669433 2.1394352099 1.235203717
408 1 177.0656669433 0.0 4.9408147915
409 1 178.8187912419 0.0 0.0
410 1 178.8187912419 2.1394352099 3.7056110746
411 1 180.5719191908 0.0 2.4704073576
412 1 180.5719191908 2.1394352099 6.1760184323
413 1 179.6953533817 2.1394352099 1.235203717
414 1 179.6953533817 0.0 4.9408147915
415 1 181.4484813305 0.0 0.0
416 1 181.4484813305 2.1394352099 3.7056110746
417 1 183.2016056292 0.0 2.4704073576
418 1 183.2016056292 2.1394352099 6.1760184323
419 1 182.3250434798 2.1394352099 1.235203717
420 1 182.3250434798 0.0 4.9408147915
421 1 184.0781677785 0.0 0.0
422 1 184.0781677785 2.1394352099 3.7056110746
423 1 185.8312957273 0.0 2.4704073576
424 1 185.8312957273 2.1394352099 6.1760184323
425 1 184.9547299182 2.1394352099 1.235203717
426 1 184.9547299182 0.0 4.9408147915
427 1 186.7078578671 0.0 0.0
428 1 186.7078578671 2.1394352099 3.7056110746
429 1 188.4609821656 0.0 2.4704073576
430 1 188.4609821656 2.1394352099 6.1760184323
431 1 187.5844200164 2.1394352099 1.235203717
432 1 187.5844200164 0.0 4.9408147915
433 1 189.3375443053 0.0 0.0
434 1 189.3375443053 2.1394352099 3.7056110746
435 1 191.0906686039 0.0 2.4704073576
436 1 191.0906686039 2.1394352099 6.1760184323
437 1 190.2141064546 2.1394352099 1.235203717
438 1 190.2141064546 0.0 4.9408147915
439 1 191.9672344035 0.0 0.0
440 1 191.9672344035 2.1394352099 3.7056110746
441 1 193.7203587021 0.0 2.4704073576
442 1 193.7203587021 2.1394352099 6.1760184323
443 1 192.8437965528 2.1394352099 1.235203717
444 1 192.8437965528 0.0 4.9408147915
445 1 194.5969208418 0.0 0.0
446 1 194.5969208418 2.1394352099 3.7056110746
447 1 196.3500451405 0.0 2.4704073576
448 1 196.3500451405 2.1394352099 6.1760184323
449 1 195.4734829912 2.1394352099 1.235203717
450 1 195.4734829912 0.0 4.9408147915
451 1 197.22661094 0.0 0.0
452 1 197.22661094 2.1394352099 3.7056110746
453 1 198.9797352386 0.0 2.4704073576
454 1 198.9797352386 2.1394352099 6.1760184323
455 1 198.1031730893 2.1394352099 1.235203717
456 1 198.1031730893 0.0 4.9408147915
457 1 199.8562973784 0.0 0.0
458 1 199.8562973784 2.1394352099 3.7056110746
459 1 201.6094216769 0.0 2.4704073576
460 1 201.6094216769 2.1394352099 6.1760184323
461 1 200.7328595277 2.1394352099 1.235203717
462 1 200.7328595277 0.0 4.9408147915
463 1 202.4859838166 0.0 0.0
464 1 202.4859838166 2.1394352099 3.7056110746
465 1 204.2391117656 0.0 2.4704073576
466 1 204.2391117656 2.1394352099 6.1760184323
467 1 203.3625496257 2.1394352099 1.235203717
468 1 203.3625496257 0.0 4.9408147915
469 1 205.1156739148 0.0 0.0
470 1 205.1156739148 2.1394352099 3.7056110746
471 1 206.8687982134 0.0 2.4704073576
472 1 206.8687982134 2.1394352099 6.1760184323
473 1 205.9922360641 2.1394352099 1.235203717
474 1 205.9922360641 0.0 4.9408147915
475 1 207.7453603532 0.0 0.0
476 1 207.7453603532 2.1394352099 3.7056110746
477 1 209.498488302 0.0 2.4704073576
478 1 209.498488302 2.1394352099 6.1760184323
479 1 208.6219261622 2.1394352099 1.235203717
480 1 208.6219261622 0.0 4.9408147915
481 1 210.3750504513 0.0 0.0
482 1 210.3750504513 2.1394352099 3.7056110746
483 1 212.1281747404 0.0 2.4704073576
484 1 212.1281747404 2.1394352099 6.1760184323
485 1 211.2516126006 2.1394352099 1.235203717
486 1 211.2516126006 0.0 4.9408147915
487 1 213.0047368897 0.0 0.0
488 1 213.0047368897 2.1394352099 3.7056110746
489 1 214.7578648385 0.0 2.4704073576
490 1 214.7578648385 2.1394352099 6.1760184323
491 1 213.8812990389 2.1394352099 1.235203717
492 1 213.8812990389 0.0 4.9408147915
493 1 215.6344269878 0.0 0.0
494 1 215.6344269878 2.1394352099 3.7056110746
495 1 217.3875512768 0.0 2.4704073576
496 1 217.3875512768 2.1394352099 6.1760184323
497 1 216.510989137 2.1394352099 1.235203717
498 1 216.510989137 0.0 4.9408147915
499 1 218.2641134261 0.0 0.0
500 1 218.2641134261 2.1394352099 3.7056110746
501 1 220.0172413749 0.0 2.4704073576
502 1 220.0172413749 2.1394352099 6.1760184323
503 1 219.1406755754 2.1394352099 1.235203717
504 1 219.1406755754 0.0 4.9408147915
505 1 220.8938035242 0.0 0.0
506 1 220.8938035242 2.1394352099 3.7056110746
507 1 222.6469278133 0.0 2.4704073576
508 1 222.6469278133 2.1394352099 6.1760184323
509 1 221.7703656736 2.1394352099 1.235203717
510 1 221.7703656736 0.0 4.9408147915
511 1 223.5234899626 0.0 0.0
512 1 223.5234899626 2.1394352099 3.7056110746
513 1 225.2766142517 0.0 2.4704073576
514 1 225.2766142517 2.1394352099 6.1760184323
515 1 224.4000521119 2.1394352099 1.235203717
516 1 224.4000521119 0.0 4.9408147915
517 1 226.1531800608 0.0 0.0
518 1 226.1531800608 2.1394352099 3.7056110746
519 1 227.9063043498 0.0 2.4704073576
520 1 227.9063043498 2.1394352099 6.1760184323
521 1 227.0297422005 2.1394352099 1.235203717
522 1 227.0297422005 0.0 4.9408147915
523 1 228.7828664991 0.0 0.0
524 1 228.7828664991 2.1394352099 3.7056110746
525 1 230.5359907881 0.0 2.4704073576
526 1 230.5359907881 2.1394352099 6.1760184323
527 1 229.6594286483 2.1394352099 1.235203717
528 1 229.6594286483 0.0 4.9408147915
529 1 231.4125565972 0.0 0.0
530 1 231.4125565972 2.1394352099 3.7056110746
531 1 233.1656808862 0.0 2.4704073576
532 1 233.1656808862 2.1394352099 6.1760184323
533 1 232.289118737 2.1394352099 1.235203717
534 1 232.289118737 0.0 4.9408147915
535 1 234.0422430356 0.0 0.0
536 1 234.0422430356 2.1394352099 3.7056110746
537 1 235.7953673246 0.0 2.4704073576
538 1 235.7953673246 2.1394352099 6.1760184323
539 1 234.9188051849 2.1394352099 1.235203717
540 1 234.9188051849 0.0 4.9408147915
541 1 236.6719294739 0.0 0.0
542 1 236.6719294739 2.1394352099 3.7056110746
543 1 238.4250574228 0.0 2.4704073576
544 1 238.4250574228 2.1394352099 6.1760184323
545 1 237.5484952735 2.1394352099 1.235203717
546 1 237.5484952735 0.0 4.9408147915
547 1 239.3016195721 0.0 0.0
548 1 239.3016195721 2.1394352099 3.7056110746
549 1 241.0547438611 0.0 2.4704073576
550 1 241.0547438611 2.1394352099 6.1760184323
551 1 240.1781817118 2.1394352099 1.235203717
552 1 240.1781817118 0.0 4.9408147915
553 1 241.9313060103 0.0 0.0
554 1 241.9313060103 2.1394352099 3.7056110746
555 1 243.6844339593 0.0 2.4704073576
556 1 243.6844339593 2.1394352099 6.1760184323
557 1 242.80787181 2.1394352099 1.235203717
558 1 242.80787181 0.0 4.9408147915
559 1 244.5609961085 0.0 0.0
560 1 244.5609961085 2.1394352099 3.7056110746
561 1 246.3141203976 0.0 2.4704073576
562 1 246.3141203976 2.1394352099 6.1760184323
563 1 245.4375582482 2.1394352099 1.235203717
564 1 245.4375582482 0.0 4.9408147915
565 1 247.1906825469 0.0 0.0
566 1 247.1906825469 2.1394352099 3.7056110746
567 1 248.9438104957 0.0 2.4704073576
568 1 248.9438104957 2.1394352099 6.1760184323
569 1 248.0672446866 2.1394352099 1.235203717
570 1 248.0672446866 0.0 4.9408147915
571 1 249.8203726355 0.0 0.0
572 1 249.8203726355 2.1394352099 3.7056110746
573 1 251.5734969341 0.0 2.4704073576
574 1 251.5734969341 2.1394352099 6.1760184323
575 1 250.6969347848 2.1394352099 1.235203717
576 1 250.6969347848 0.0 4.9408147915
577 1 252.4500590834 0.0 0.0
578 1 252.4500590834 2.1394352099 3.7056110746
579 1 254.2031870322 0.0 2.4704073576
580 1 254.2031870322 2.1394352099 6.1760184323
581 1 253.3266212231 2.1394352099 1.235203717
582 1 253.3266212231 0.0 4.9408147915
583 1 255.079749172 0.0 0.0
584 1 255.079749172 2.1394352099 3.7056110746
585 1 256.8328734706 0.0 2.4704073576
586 1 256.8328734706 2.1394352099 6.1760184323
587 1 255.9563113213 2.1394352099 1.235203717
588 1 255.9563113213 0.0 4.9408147915
589 1 257.7094356198 0.0 0.0
590 1 257.7094356198 2.1394352099 3.7056110746
591 1 259.4625599089 0.0 2.4704073576
592 1 259.4625599089 2.1394352099 6.1760184323
593 1 258.5859977596 2.1394352099 1.235203717
594 1 258.5859977596 0.0 4.9408147915
595 1 260.3391257085 0.0 0.0
596 1 260.3391257085 2.1394352099 3.7056110746
597 1 262.092250007 0.0 2.4704073576
598 1 262.092250007 2.1394352099 6.1760184323
599 1 261.2156878577 2.1394352099 1.235203717
600 1 261.2156878577 0.0 4.9408147915
601 1 262.9688121468 0.0 0.0
602 1 262.9688121468 2.1394352099 3.7056110746
603 1 264.7219364454 0.0 2.4704073576
604 1 264.7219364454 2.1394352099 6.1760184323
605 1 263.8453742961 2.1394352099 1.235203717
606 1 263.8453742961 0.0 4.9408147915
607 1 265.5985022449 0.0 0.0
608 1 265.5985022449 2.1394352099 3.7056110746
609 1 267.3516265435 0.0 2.4704073576
610 1 267.3516265435 2.1394352099 6.1760184323
611 1 266.4750643942 2.1394352099 1.235203717
612 1 266.4750643942 0.0 4.9408147915
613 1 268.2281886833 0.0 0.0
614 1 268.2281886833 2.1394352099 3.7056110746
615 1 269.9813129818 0.0 2.4704073576
616 1 269.9813129818 2.1394352099 6.1760184323
617 1 269.1047508326 2.1394352099 1.235203717
618 1 269.1047508326 0.0 4.9408147915
619 1 270.8578751217 0.0 0.0
620 1 270.8578751217 2.1394352099 3.7056110746
621 1 272.6110030705 0.0 2.4704073576
622 1 272.6110030705 2.1394352099 6.1760184323
623 1 271.7344409307 2.1394352099 1.235203717
624 1 271.7344409307 0.0 4.9408147915
625 1 273.4875652197 0.0 0.0
626 1 273.4875652197 2.1394352099 3.7056110746
627 1 275.2406895183 0.0 2.4704073576
628 1 275.2406895183 2.1394352099 6.1760184323
629 1 274.364127369 2.1394352099 1.235203717
630 1 274.364127369 0.0 4.9408147915
631 1 276.1172516581 0.0 0.0
632 1 276.1172516581 2.1394352099 3.7056110746
633 1 277.8703796069 0.0 2.4704073576
634 1 277.8703796069 2.1394352099 6.1760184323
635 1 276.9938138074 2.1394352099 1.235203717
636 1 276.9938138074 0.0 4.9408147915
637 1 278.7469417562 0.0 0.0
638 1 278.7469417562 2.1394352099 3.7056110746
639 1 280.5000660549 0.0 2.4704073576
640 1 280.5000660549 2.1394352099 6.1760184323
641 1 279.6235039055 2.1394352099 1.235203717
642 1 279.6235039055 0.0 4.9408147915
643 1 281.3766281946 0.0 0.0
644 1 281.3766281946 2.1394352099 3.7056110746
645 1 283.1297561434 0.0 2.4704073576
646 1 283.1297561434 2.1394352099 6.1760184323
647 1 282.2531903439 2.1394352099 1.235203717
648 1 282.2531903439 0.0 4.9408147915
649 1 284.0063182928 0.0 0.0
650 1 284.0063182928 2.1394352099 3.7056110746
651 1 285.7594425818 0.0 2.4704073576
652 1 285.7594425818 2.1394352099 6.1760184323
653 1 284.8828804421 2.1394352099 1.235203717
654 1 284.8828804421 0.0 4.9408147915
655 1 286.636004731 0.0 0.0
656 1 286.636004731 2.1394352099 3.7056110746
657 1 288.3891290296 0.0 2.4704073576
658 1 288.3891290296 2.1394352099 6.1760184323
659 1 287.5125668803 2.1394352099 1.235203717
660 1 287.5125668803 0.0 4.9408147915
661 1 289.2656948292 0.0 0.0
662 1 289.2656948292 2.1394352099 3.7056110746
663 1 291.0188191182 0.0 2.4704073576
664 1 291.0188191182 2.1394352099 6.1760184323
665 1 290.1422569785 2.1394352099 1.235203717
666 1 290.1422569785 0.0 4.9408147915
667 1 291.8953812675 0.0 0.0
668 1 291.8953812675 2.1394352099 3.7056110746
669 1 293.6485055662 0.0 2.4704073576
670 1 293.6485055662 2.1394352099 6.1760184323
671 1 292.7719434169 2.1394352099 1.235203717
672 1 292.7719434169 0.0 4.9408147915
673 1 294.5250713657 0.0 0.0
674 1 294.5250713657 2.1394352099 3.7056110746
675 1 296.2781956548 0.0 2.4704073576
676 1 296.2781956548 2.1394352099 6.1760184323
677 1 295.4016335054 2.1394352099 1.235203717
678 1 295.4016335054 0.0 4.9408147915
679 1 297.1547578041 0.0 0.0
680 1 297.1547578041 2.1394352099 3.7056110746
681 1 298.9078820931 0.0 2.4704073576
682 1 298.9078820931 2.1394352099 6.1760184323
683 1 298.0313199533 2.1394352099 1.235203717
684 1 298.0313199533 0.0 4.9408147915
685 1 299.7844442423 0.0 0.0
686 1 299.7844442423 2.1394352099 3.7056110746
687 1 301.5375721912 0.0 2.4704073576
688 1 301.5375721912 2.1394352099 6.1760184323
689 1 300.661010042 2.1394352099 1.235203717
690 1 300.661010042 0.0 4.9408147915
691 1 302.4141343405 0.0 0.0
692 1 302.4141343405 2.1394352099 3.7056110746
693 1 304.1672586295 0.0 2.4704073576
694 1 304.1672586295 2.1394352099 6.1760184323
695 1 303.2906964898 2.1394352099 1.235203717
696 1 303.2906964898 0.0 4.9408147915
697 1 305.0438207789 0.0 0.0
698 1 305.0438207789 2.1394352099 3.7056110746
699 1 306.7969487277 0.0 2.4704073576
700 1 306.7969487277 2.1394352099 6.1760184323
701 1 305.9203865784 2.1394352099 1.235203717
702 1 305.9203865784 0.0 4.9408147915
703 1 307.673510877 0.0 0.0
704 1 307.673510877 2.1394352099 3.7056110746
705 1 309.4266351661 0.0 2.4704073576
706 1 309.4266351661 2.1394352099 6.1760184323
707 1 308.5500730168 2.1394352099 1.235203717
708 1 308.5500730168 0.0 4.9408147915
709 1 310.3031973154 0.0 0.0
710 1 310.3031973154 2.1394352099 3.7056110746
711 1 312.0563252642 0.0 2.4704073576
712 1 312.0563252642 2.1394352099 6.1760184323
713 1 311.1797594646 2.1394352099 1.235203717
714 1 311.1797594646 0.0 4.9408147915
715 1 312.9328874135 0.0 0.0
716 1 312.9328874135 2.1394352099 3.7056110746
717 1 314.6860117025 0.0 2.4704073576
718 1 314.6860117025 2.1394352099 6.1760184323
719 1 313.8094495533 2.1394352099 1.235203717
720 1 313.8094495533 0.0 4.9408147915
721 1 315.5625738518 0.0 0.0
722 1 315.5625738518 2.1394352099 3.7056110746
723 1 317.3157018006 0.0 2.4704073576
724 1 317.3157018006 2.1394352099 6.1760184323
725 1 316.4391360011 2.1394352099 1.235203717
726 1 316.4391360011 0.0 4.9408147915
727 1 318.1922639499 0.0 0.0
728 1 318.1922639499 2.1394352099 3.7056110746
729 1 319.945388239 0.0 2.4704073576
730 1 319.945388239 2.1394352099 6.1760184323
731 1 319.0688260897 2.1394352099 1.235203717
732 1 319.0688260897 0.0 4.9408147915
733 1 320.8219503883 0.0 0.0
734 1 320.8219503883 2.1394352099 3.7056110746
735 1 322.5750746774 0.0 2.4704073576
736 1 322.5750746774 2.1394352099 6.1760184323
737 1 321.6985125281 2.1394352099 1.235203717
738 1 321.6985125281 0.0 4.9408147915
739 1 323.4516404769 0.0 0.0
740 1 323.4516404769 2.1394352099 3.7056110746
741 1 325.2047647755 0.0 2.4704073576