# LAMMPS data file written by OVITO Basic 3.3.0
80352 atoms
1 atom types
0.0 348.0113271906 xlo xhi
0.0 338.6923622711 ylo yhi
0.0 8.1476719385 zlo zhi

Masses

1 95.96  # Mo

Atoms  # atomic

1 1 0.0 0.0 0.0
2 1 0.0 3.5280448789 2.0369179869
3 1 1.6691180029 2.3520304788 0.0
4 1 1.6691180029 5.8800753577 2.0369179869
5 1 0.834559006 1.176014391 2.0369179869
6 1 0.834559006 4.7040609667 0.0
7 1 2.5036770089 0.0 0.0
8 1 2.5036770089 3.5280448789 2.0369179869
9 1 4.1727984962 2.3520304788 0.0
10 1 4.1727984962 5.8800753577 2.0369179869
11 1 3.3382394902 1.176014391 2.0369179869
12 1 3.3382394902 4.7040609667 0.0
13 1 5.0073575022 0.0 0.0
14 1 5.0073575022 3.5280448789 2.0369179869
15 1 6.6764755051 2.3520304788 0.0
16 1 6.6764755051 5.8800753577 2.0369179869
17 1 5.8419165081 1.176014391 2.0369179869
18 1 5.8419165081 4.7040609667 0.0
19 1 7.511034511 0.0 0.0
20 1 7.511034511 3.5280448789 2.0369179869
21 1 9.1801559983 2.3520304788 0.0
22 1 9.1801559983 5.8800753577 2.0369179869
23 1 8.3455969924 1.176014391 2.0369179869
24 1 8.3455969924 4.7040609667 0.0
25 1 10.0147150043 0.0 0.0
26 1 10.0147150043 3.5280448789 2.0369179869
27 1 11.6838330072 2.3520304788 0.0
28 1 11.6838330072 5.8800753577 2.0369179869
29 1 10.8492740103 1.176014391 2.0369179869
30 1 10.8492740103 4.7040609667 0.0
31 1 12.5183920132 0.0 0.0
32 1 12.5183920132 3.5280448789 2.0369179869
33 1 14.1875135005 2.3520304788 0.0
34 1 14.1875135005 5.8800753577 2.0369179869
35 1 13.3529510192 1.176014391 2.0369179869
36 1 13.3529510192 4.7040609667 0.0
37 1 15.0220725065 0.0 0.0
38 1 15.0220725065 3.5280448789 2.0369179869
39 1 16.6911905094 2.3520304788 0.0
40 1 16.6911905094 5.8800753577 2.0369179869
41 1 15.8566315034 1.176014391 2.0369179869
42 1 15.8566315034 4.7040609667 0.0
43 1 17.5257495154 0.0 0.0
44 1 17.5257495154 3.5280448789 2.0369179869
45 1 19.1948710027 2.3520304788 0.0
46 1 19.1948710027 5.8800753577 2.0369179869
47 1 18.3603085213 1.176014391 2.0369179869
48 1 18.3603085213 4.7040609667 0.0
49 1 20.0294300086 0.0 0.0
50 1 20.0294300086 3.5280448789 2.0369179869
51 1 21.6985480115 2.3520304788 0.0
52 1 21.6985480115 5.8800753577 2.0369179869
53 1 20.8639890056 1.176014391 2.0369179869
54 1 20.8639890056 4.7040609667 0.0
55 1 22.5331070175 0.0 0.0
56 1 22.5331070175 3.5280448789 2.0369179869
57 1 24.2022250204 2.3520304788 0.0
58 1 24.2022250204 5.8800753577 2.0369179869
59 1 23.3676660144 1.176014391 2.0369179869
60 1 23.3676660144 4.7040609667 0.0
61 1 25.0367875017 0.0 0.0
62 1 25.0367875017 3.5280448789 2.0369179869
63 1 26.7059055137 2.3520304788 0.0
64 1 26.7059055137 5.8800753577 2.0369179869
65 1 25.8713465077 1.176014391 2.0369179869
66 1 25.8713465077 4.7040609667 0.0
67 1 27.5404645197 0.0 0.0
68 1 27.5404645197 3.5280448789 2.0369179869
69 1 29.2095825226 2.3520304788 0.0
70 1 29.2095825226 5.8800753577 2.0369179869
71 1 28.3750235166 1.176014391 2.0369179869
72 1 28.3750235166 4.7040609667 0.0
73 1 30.0441450039 0.0 0.0
74 1 30.0441450039 3.5280448789 2.0369179869
75 1 31.7132630159 2.3520304788 0.0
76 1 31.7132630159 5.8800753577 2.0369179869
77 1 30.8787040099 1.176014391 2.0369179869
78 1 30.8787040099 4.7040609667 0.0
79 1 32.5478220218 0.0 0.0
80 1 32.5478220218 3.5280448789 2.0369179869
81 1 34.2169400247 2.3520304788 0.0
82 1 34.2169400247 5.8800753577 2.0369179869
83 1 33.3823810188 1.176014391 2.0369179869
84 1 33.3823810188 4.7040609667 0.0
85 1 35.0514990307 0.0 0.0
86 1 35.0514990307 3.5280448789 2.0369179869
87 1 36.720620518 2.3520304788 0.0
88 1 36.720620518 5.8800753577 2.0369179869
89 1 35.886061512 1.176014391 2.0369179869
90 1 35.886061512 4.7040609667 0.0
91 1 37.5551795149 0.0 0.0
92 1 37.5551795149 3.5280448789 2.0369179869
93 1 39.2242975269 2.3520304788 0.0
94 1 39.2242975269 5.8800753577 2.0369179869
95 1 38.3897385209 1.176014391 2.0369179869
96 1 38.3897385209 4.7040609667 0.0
97 1 40.0588565329 0.0 0.0
98 1 40.0588565329 3.5280448789 2.0369179869
99 1 41.7279780202 2.3520304788 0.0
100 1 41.7279780202 5.8800753577 2.0369179869
101 1 40.8934190142 1.176014391 2.0369179869
102 1 40.8934190142 4.7040609667 0.0
103 1 42.5625370171 0.0 0.0
104 1 42.5625370171 3.5280448789 2.0369179869
105 1 44.2316550291 2.3520304788 0.0
106 1 44.2316550291 5.8800753577 2.0369179869
107 1 43.3970960231 1.176014391 2.0369179869
108 1 43.3970960231 4.7040609667 0.0
109 1 45.066214026 0.0 0.0
110 1 45.066214026 3.5280448789 2.0369179869
111 1 46.7353355133 2.3520304788 0.0
112 1 46.7353355133 5.8800753577 2.0369179869
113 1 45.9007730319 1.176014391 2.0369179869
114 1 45.9007730319 4.7040609667 0.0
115 1 47.5698945193 0.0 0.0
116 1 47.5698945193 3.5280448789 2.0369179869
117 1 49.2390125312 2.3520304788 0.0
118 1 49.2390125312 5.8800753577 2.0369179869
119 1 48.4044535252 1.176014391 2.0369179869
120 1 48.4044535252 4.7040609667 0.0
121 1 50.0735715281 0.0 0.0
122 1 50.0735715281 3.5280448789 2.0369179869
123 1 51.7426930154 2.3520304788 0.0
124 1 51.7426930154 5.8800753577 2.0369179869
125 1 50.9081305341 1.176014391 2.0369179869
126 1 50.9081305341 4.7040609667 0.0
127 1 52.5772520214 0.0 0.0
128 1 52.5772520214 3.5280448789 2.0369179869
129 1 54.2463700334 2.3520304788 0.0
130 1 54.2463700334 5.8800753577 2.0369179869
131 1 53.4118110274 1.176014391 2.0369179869
132 1 53.4118110274 4.7040609667 0.0
133 1 55.0809290303 0.0 0.0
134 1 55.0809290303 3.5280448789 2.0369179869
135 1 56.7500470423 2.3520304788 0.0
136 1 56.7500470423 5.8800753577 2.0369179869
137 1 55.9154880363 1.176014391 2.0369179869
138 1 55.9154880363 4.7040609667 0.0
139 1 57.5846095236 0.0 0.0
140 1 57.5846095236 3.5280448789 2.0369179869
141 1 59.2537275265 2.3520304788 0.0
142 1 59.2537275265 5.8800753577 2.0369179869
143 1 58.4191685296 1.176014391 2.0369179869
144 1 58.4191685296 4.7040609667 0.0
145 1 60.0882865324 0.0 0.0
146 1 60.0882865324 3.5280448789 2.0369179869
147 1 61.7574045444 2.3520304788 0.0
148 1 61.7574045444 5.8800753577 2.0369179869
149 1 60.9228455384 1.176014391 2.0369179869
150 1 60.9228455384 4.7040609667 0.0
151 1 62.5919670257 0.0 0.0
152 1 62.5919670257 3.5280448789 2.0369179869
153 1 64.2610850286 2.3520304788 0.0
154 1 64.2610850286 5.8800753577 2.0369179869
155 1 63.4265260317 1.176014391 2.0369179869
156 1 63.4265260317 4.7040609667 0.0
157 1 65.0956440346 0.0 0.0
158 1 65.0956440346 3.5280448789 2.0369179869
159 1 66.7647620466 2.3520304788 0.0
160 1 66.7647620466 5.8800753577 2.0369179869
161 1 65.9302030406 1.176014391 2.0369179869
162 1 65.9302030406 4.7040609667 0.0
163 1 67.5993210435 0.0 0.0
164 1 67.5993210435 3.5280448789 2.0369179869
165 1 69.2684425308 2.3520304788 0.0
166 1 69.2684425308 5.8800753577 2.0369179869
167 1 68.4338835248 1.176014391 2.0369179869
168 1 68.4338835248 4.7040609667 0.0
169 1 70.1030015368 0.0 0.0
170 1 70.1030015368 3.5280448789 2.0369179869
171 1 71.7721195397 2.3520304788 0.0
172 1 71.7721195397 5.8800753577 2.0369179869
173 1 70.9375605428 1.176014391 2.0369179869
174 1 70.9375605428 4.7040609667 0.0
175 1 72.6066785456 0.0 0.0
176 1 72.6066785456 3.5280448789 2.0369179869
177 1 74.275800033 2.3520304788 0.0
178 1 74.275800033 5.8800753577 2.0369179869
179 1 73.441241027 1.176014391 2.0369179869
180 1 73.441241027 4.7040609667 0.0
181 1 75.1103590389 0.0 0.0
182 1 75.1103590389 3.5280448789 2.0369179869
183 1 76.7794770418 2.3520304788 0.0
184 1 76.7794770418 5.8800753577 2.0369179869
185 1 75.9449180449 1.176014391 2.0369179869
186 1 75.9449180449 4.7040609667 0.0
187 1 77.6140360478 0.0 0.0
188 1 77.6140360478 3.5280448789 2.0369179869
189 1 79.2831575351 2.3520304788 0.0
190 1 79.2831575351 5.8800753577 2.0369179869
191 1 78.4485950538 1.176014391 2.0369179869
192 1 78.4485950538 4.7040609667 0.0
193 1 80.1177165411 0.0 0.0
194 1 80.1177165411 3.5280448789 2.0369179869
195 1 81.786834544 2.3520304788 0.0
196 1 81.786834544 5.8800753577 2.0369179869
197 1 80.952275538 1.176014391 2.0369179869
198 1 80.952275538 4.7040609667 0.0
199 1 82.62139355 0.0 0.0
200 1 82.62139355 3.5280448789 2.0369179869
201 1 84.2905150373 2.3520304788 0.0
202 1 84.2905150373 5.8800753577 2.0369179869
203 1 83.4559525559 1.176014391 2.0369179869
204 1 83.4559525559 4.7040609667 0.0
205 1 85.1250740433 0.0 0.0
206 1 85.1250740433 3.5280448789 2.0369179869
207 1 86.7941920461 2.3520304788 0.0
208 1 86.7941920461 5.8800753577 2.0369179869
209 1 85.9596330402 1.176014391 2.0369179869
210 1 85.9596330402 4.7040609667 0.0
211 1 87.6287510521 0.0 0.0
212 1 87.6287510521 3.5280448789 2.0369179869
213 1 89.297869055 2.3520304788 0.0
214 1 89.297869055 5.8800753577 2.0369179869
215 1 88.4633100581 1.176014391 2.0369179869
216 1 88.4633100581 4.7040609667 0.0
217 1 90.1324315454 0.0 0.0
218 1 90.1324315454 3.5280448789 2.0369179869
219 1 91.8015495483 2.3520304788 0.0
220 1 91.8015495483 5.8800753577 2.0369179869
221 1 90.9669905423 1.176014391 2.0369179869
222 1 90.9669905423 4.7040609667 0.0
223 1 92.6361085543 0.0 0.0
224 1 92.6361085543 3.5280448789 2.0369179869
225 1 94.3052265572 2.3520304788 0.0
226 1 94.3052265572 5.8800753577 2.0369179869
227 1 93.4706675512 1.176014391 2.0369179869
228 1 93.4706675512 4.7040609667 0.0
229 1 95.1397855632 0.0 0.0
230 1 95.1397855632 3.5280448789 2.0369179869
231 1 96.8089070505 2.3520304788 0.0
232 1 96.8089070505 5.8800753577 2.0369179869
233 1 95.9743480445 1.176014391 2.0369179869
234 1 95.9743480445 4.7040609667 0.0
235 1 97.6434660565 0.0 0.0
236 1 97.6434660565 3.5280448789 2.0369179869
237 1 99.3125840593 2.3520304788 0.0
238 1 99.3125840593 5.8800753577 2.0369179869
239 1 98.4780250534 1.176014391 2.0369179869
240 1 98.4780250534 4.7040609667 0.0
241 1 100.1471430653 0.0 0.0
242 1 100.1471430653 3.5280448789 2.0369179869
243 1 101.8162645526 2.3520304788 0.0
244 1 101.8162645526 5.8800753577 2.0369179869
245 1 100.9817055467 1.176014391 2.0369179869
246 1 100.9817055467 4.7040609667 0.0
247 1 102.6508235495 0.0 0.0
248 1 102.6508235495 3.5280448789 2.0369179869
249 1 104.3199415615 2.3520304788 0.0
250 1 104.3199415615 5.8800753577 2.0369179869
251 1 103.4853825555 1.176014391 2.0369179869
252 1 103.4853825555 4.7040609667 0.0
253 1 105.1545005675 0.0 0.0
254 1 105.1545005675 3.5280448789 2.0369179869
255 1 106.8236220548 2.3520304788 0.0
256 1 106.8236220548 5.8800753577 2.0369179869
257 1 105.9890595644 1.176014391 2.0369179869
258 1 105.9890595644 4.7040609667 0.0
259 1 107.6581810517 0.0 0.0
260 1 107.6581810517 3.5280448789 2.0369179869
261 1 109.3272990637 2.3520304788 0.0
262 1 109.3272990637 5.8800753577 2.0369179869
263 1 108.4927400577 1.176014391 2.0369179869
264 1 108.4927400577 4.7040609667 0.0
265 1 110.1618580696 0.0 0.0
266 1 110.1618580696 3.5280448789 2.0369179869
267 1 111.830979557 2.3520304788 0.0
268 1 111.830979557 5.8800753577 2.0369179869
269 1 110.9964170666 1.176014391 2.0369179869
270 1 110.9964170666 4.7040609667 0.0
271 1 112.6655385539 0.0 0.0
272 1 112.6655385539 3.5280448789 2.0369179869
273 1 114.3346565658 2.3520304788 0.0
274 1 114.3346565658 5.8800753577 2.0369179869
275 1 113.5000975598 1.176014391 2.0369179869
276 1 113.5000975598 4.7040609667 0.0
277 1 115.1692155627 0.0 0.0
278 1 115.1692155627 3.5280448789 2.0369179869
279 1 116.8383335747 2.3520304788 0.0
280 1 116.8383335747 5.8800753577 2.0369179869
281 1 116.0037745687 1.176014391 2.0369179869
282 1 116.0037745687 4.7040609667 0.0
283 1 117.672896056 0.0 0.0
284 1 117.672896056 3.5280448789 2.0369179869
285 1 119.342014068 2.3520304788 0.0
286 1 119.342014068 5.8800753577 2.0369179869
287 1 118.507455062 1.176014391 2.0369179869
288 1 118.507455062 4.7040609667 0.0
289 1 120.1765730649 0.0 0.0
290 1 120.1765730649 3.5280448789 2.0369179869
291 1 121.8456910769 2.3520304788 0.0
292 1 121.8456910769 5.8800753577 2.0369179869
293 1 121.0111320709 1.176014391 2.0369179869
294 1 121.0111320709 4.7040609667 0.0
295 1 122.6802535582 0.0 0.0
296 1 122.6802535582 3.5280448789 2.0369179869
297 1 124.3493715611 2.3520304788 0.0
298 1 124.3493715611 5.8800753577 2.0369179869
299 1 123.5148125642 1.176014391 2.0369179869
300 1 123.5148125642 4.7040609667 0.0
301 1 125.1839305671 0.0 0.0
302 1 125.1839305671 3.5280448789 2.0369179869
303 1 126.853048579 2.3520304788 0.0
304 1 126.853048579 5.8800753577 2.0369179869
305 1 126.018489573 1.176014391 2.0369179869
306 1 126.018489573 4.7040609667 0.0
307 1 127.6876075759 0.0 0.0
308 1 127.6876075759 3.5280448789 2.0369179869
309 1 129.3567290632 2.3520304788 0.0
310 1 129.3567290632 5.8800753577 2.0369179869
311 1 128.5221700663 1.176014391 2.0369179869
312 1 128.5221700663 4.7040609667 0.0
313 1 130.1912880692 0.0 0.0
314 1 130.1912880692 3.5280448789 2.0369179869
315 1 131.8604060812 2.3520304788 0.0
316 1 131.8604060812 5.8800753577 2.0369179869
317 1 131.0258470752 1.176014391 2.0369179869
318 1 131.0258470752 4.7040609667 0.0
319 1 132.6949650781 0.0 0.0
320 1 132.6949650781 3.5280448789 2.0369179869
321 1 134.3640865654 2.3520304788 0.0
322 1 134.3640865654 5.8800753577 2.0369179869
323 1 133.5295275685 1.176014391 2.0369179869
324 1 133.5295275685 4.7040609667 0.0
325 1 135.1986455714 0.0 0.0
326 1 135.1986455714 3.5280448789 2.0369179869
327 1 136.8677635743 2.3520304788 0.0
328 1 136.8677635743 5.8800753577 2.0369179869
329 1 136.0332045774 1.176014391 2.0369179869
330 1 136.0332045774 4.7040609667 0.0
331 1 137.7023225803 0.0 0.0
332 1 137.7023225803 3.5280448789 2.0369179869
333 1 139.3714440676 2.3520304788 0.0
334 1 139.3714440676 5.8800753577 2.0369179869
335 1 138.5368815862 1.176014391 2.0369179869
336 1 138.5368815862 4.7040609667 0.0
337 1 140.2060030735 0.0 0.0
338 1 140.2060030735 3.5280448789 2.0369179869
339 1 141.8751210764 2.3520304788 0.0
340 1 141.8751210764 5.8800753577 2.0369179869
341 1 141.0405620795 1.176014391 2.0369179869
342 1 141.0405620795 4.7040609667 0.0
343 1 142.7096800824 0.0 0.0
344 1 142.7096800824 3.5280448789 2.0369179869
345 1 144.3788015697 2.3520304788 0.0
346 1 144.3788015697 5.8800753577 2.0369179869
347 1 143.5442390884 1.176014391 2.0369179869
348 1 143.5442390884 4.7040609667 0.0
349 1 145.2133605757 0.0 0.0
350 1 145.2133605757 3.5280448789 2.0369179869
351 1 146.8824785786 2.3520304788 0.0
352 1 146.8824785786 5.8800753577 2.0369179869
353 1 146.0479195817 1.176014391 2.0369179869
354 1 146.0479195817 4.7040609667 0.0
355 1 147.7170375846 0.0 0.0
356 1 147.7170375846 3.5280448789 2.0369179869
357 1 149.3861555875 2.3520304788 0.0
358 1 149.3861555875 5.8800753577 2.0369179869
359 1 148.5515965906 1.176014391 2.0369179869
360 1 148.5515965906 4.7040609667 0.0
361 1 150.2207180779 0.0 0.0
362 1 150.2207180779 3.5280448789 2.0369179869
363 1 151.8898360808 2.3520304788 0.0
364 1 151.8898360808 5.8800753577 2.0369179869
365 1 151.0552770748 1.176014391 2.0369179869
366 1 151.0552770748 4.7040609667 0.0
367 1 152.7243950867 0.0 0.0
368 1 152.7243950867 3.5280448789 2.0369179869
369 1 154.3935130896 2.3520304788 0.0
370 1 154.3935130896 5.8800753577 2.0369179869
371 1 153.5589540927 1.176014391 2.0369179869
372 1 153.5589540927 4.7040609667 0.0
373 1 155.22807558 0.0 0.0
374 1 155.22807558 3.5280448789 2.0369179869
375 1 156.8971935829 2.3520304788 0.0
376 1 156.8971935829 5.8800753577 2.0369179869
377 1 156.0626345769 1.176014391 2.0369179869
378 1 156.0626345769 4.7040609667 0.0
379 1 157.7317525889 0.0 0.0
380 1 157.7317525889 3.5280448789 2.0369179869
381 1 159.4008705918 2.3520304788 0.0
382 1 159.4008705918 5.8800753577 2.0369179869
383 1 158.5663115858 1.176014391 2.0369179869
384 1 158.5663115858 4.7040609667 0.0
385 1 160.2354295978 0.0 0.0
386 1 160.2354295978 3.5280448789 2.0369179869
387 1 161.9045510851 2.3520304788 0.0
388 1 161.9045510851 5.8800753577 2.0369179869
389 1 161.0699920791 1.176014391 2.0369179869
390 1 161.0699920791 4.7040609667 0.0
391 1 162.7391100911 0.0 0.0
392 1 162.7391100911 3.5280448789 2.0369179869
393 1 164.408228094 2.3520304788 0.0
394 1 164.408228094 5.8800753577 2.0369179869
395 1 163.573669088 1.176014391 2.0369179869
396 1 163.573669088 4.7040609667 0.0
397 1 165.2427870999 0.0 0.0
398 1 165.2427870999 3.5280448789 2.0369179869
399 1 166.9119085872 2.3520304788 0.0
400 1 166.9119085872 5.8800753577 2.0369179869
401 1 166.0773495813 1.176014391 2.0369179869
402 1 166.0773495813 4.7040609667 0.0
403 1 167.7464675932 0.0 0.0
404 1 167.7464675932 3.5280448789 2.0369179869
405 1 169.4155855961 2.3520304788 0.0
406 1 169.4155855961 5.8800753577 2.0369179869
407 1 168.5810265901 1.176014391 2.0369179869
408 1 168.5810265901 4.7040609667 0.0
409 1 170.2501446021 0.0 0.0
410 1 170.2501446021 3.5280448789 2.0369179869
411 1 171.9192660894 2.3520304788 0.0
412 1 171.9192660894 5.8800753577 2.0369179869
413 1 171.084703599 1.176014391 2.0369179869
414 1 171.084703599 4.7040609667 0.0
415 1 172.7538250863 0.0 0.0
416 1 172.7538250863 3.5280448789 2.0369179869
417 1 174.4229430983 2.3520304788 0.0
418 1 174.4229430983 5.8800753577 2.0369179869
419 1 173.5883840923 1.176014391 2.0369179869
420 1 173.5883840923 4.7040609667 0.0
421 1 175.2575021043 0.0 0.0
422 1 175.2575021043 3.5280448789 2.0369179869
423 1 176.9266235916 2.3520304788 0.0
424 1 176.9266235916 5.8800753577 2.0369179869
425 1 176.0920611012 1.176014391 2.0369179869
426 1 176.0920611012 4.7040609667 0.0
427 1 177.7611825885 0.0 0.0
428 1 177.7611825885 3.5280448789 2.0369179869
429 1 179.4303006004 2.3520304788 0.0
430 1 179.4303006004 5.8800753577 2.0369179869
431 1 178.5957415945 1.176014391 2.0369179869
432 1 178.5957415945 4.7040609667 0.0
433 1 180.2648595973 0.0 0.0
434 1 180.2648595973 3.5280448789 2.0369179869
435 1 181.9339776093 2.3520304788 0.0
436 1 181.9339776093 5.8800753577 2.0369179869
437 1 181.0994186033 1.176014391 2.0369179869
438 1 181.0994186033 4.7040609667 0.0
439 1 182.7685400906 0.0 0.0
440 1 182.7685400906 3.5280448789 2.0369179869
441 1 184.4376581026 2.3520304788 0.0
442 1 184.4376581026 5.8800753577 2.0369179869
443 1 183.6030990966 1.176014391 2.0369179869
444 1 183.6030990966 4.7040609667 0.0
445 1 185.2722170995 0.0 0.0
446 1 185.2722170995 3.5280448789 2.0369179869
447 1 186.9413351115 2.3520304788 0.0
448 1 186.9413351115 5.8800753577 2.0369179869
449 1 186.1067761055 1.176014391 2.0369179869
450 1 186.1067761055 4.7040609667 0.0
451 1 187.7758975928 0.0 0.0
452 1 187.7758975928 3.5280448789 2.0369179869
453 1 189.4450156048 2.3520304788 0.0
454 1 189.4450156048 5.8800753577 2.0369179869
455 1 188.6104565988 1.176014391 2.0369179869
456 1 188.6104565988 4.7040609667 0.0
457 1 190.2795746017 0.0 0.0
458 1 190.2795746017 3.5280448789 2.0369179869
459 1 191.9486926136 2.3520304788 0.0
460 1 191.9486926136 5.8800753577 2.0369179869
461 1 191.1141336077 1.176014391 2.0369179869
462 1 191.1141336077 4.7040609667 0.0
463 1 192.7832516105 0.0 0.0
464 1 192.7832516105 3.5280448789 2.0369179869
465 1 194.4523730979 2.3520304788 0.0
466 1 194.4523730979 5.8800753577 2.0369179869
467 1 193.6178141009 1.176014391 2.0369179869
468 1 193.6178141009 4.7040609667 0.0
469 1 195.2869321038 0.0 0.0
470 1 195.2869321038 3.5280448789 2.0369179869
471 1 196.9560501158 2.3520304788 0.0
472 1 196.9560501158 5.8800753577 2.0369179869
473 1 196.1214911098 1.176014391 2.0369179869
474 1 196.1214911098 4.7040609667 0.0
475 1 197.7906091127 0.0 0.0
476 1 197.7906091127 3.5280448789 2.0369179869
477 1 199.4597306 2.3520304788 0.0
478 1 199.4597306 5.8800753577 2.0369179869
479 1 198.6251716031 1.176014391 2.0369179869
480 1 198.6251716031 4.7040609667 0.0
481 1 200.294289606 0.0 0.0
482 1 200.294289606 3.5280448789 2.0369179869
483 1 201.9634076089 2.3520304788 0.0
484 1 201.9634076089 5.8800753577 2.0369179869
485 1 201.128848612 1.176014391 2.0369179869
486 1 201.128848612 4.7040609667 0.0
487 1 202.7979666149 0.0 0.0
488 1 202.7979666149 3.5280448789 2.0369179869
489 1 204.4670881022 2.3520304788 0.0
490 1 204.4670881022 5.8800753577 2.0369179869
491 1 203.6325256208 1.176014391 2.0369179869
492 1 203.6325256208 4.7040609667 0.0
493 1 205.3016471082 0.0 0.0
494 1 205.3016471082 3.5280448789 2.0369179869
495 1 206.970765111 2.3520304788 0.0
496 1 206.970765111 5.8800753577 2.0369179869
497 1 206.1362061141 1.176014391 2.0369179869
498 1 206.1362061141 4.7040609667 0.0
499 1 207.805324117 0.0 0.0
500 1 207.805324117 3.5280448789 2.0369179869
501 1 209.4744456043 2.3520304788 0.0
502 1 209.4744456043 5.8800753577 2.0369179869
503 1 208.639883123 1.176014391 2.0369179869
504 1 208.639883123 4.7040609667 0.0
505 1 210.3090046103 0.0 0.0
506 1 210.3090046103 3.5280448789 2.0369179869
507 1 211.9781226132 2.3520304788 0.0
508 1 211.9781226132 5.8800753577 2.0369179869
509 1 211.1435636163 1.176014391 2.0369179869
510 1 211.1435636163 4.7040609667 0.0
511 1 212.8126816192 0.0 0.0
512 1 212.8126816192 3.5280448789 2.0369179869
513 1 214.4817996221 2.3520304788 0.0
514 1 214.4817996221 5.8800753577 2.0369179869
515 1 213.6472406252 1.176014391 2.0369179869
516 1 213.6472406252 4.7040609667 0.0
517 1 215.3163621125 0.0 0.0
518 1 215.3163621125 3.5280448789 2.0369179869
519 1 216.9854801154 2.3520304788 0.0
520 1 216.9854801154 5.8800753577 2.0369179869
521 1 216.1509211094 1.176014391 2.0369179869
522 1 216.1509211094 4.7040609667 0.0
523 1 217.8200391214 0.0 0.0
524 1 217.8200391214 3.5280448789 2.0369179869
525 1 219.4891571242 2.3520304788 0.0
526 1 219.4891571242 5.8800753577 2.0369179869
527 1 218.6545981273 1.176014391 2.0369179869
528 1 218.6545981273 4.7040609667 0.0
529 1 220.3237196146 0.0 0.0
530 1 220.3237196146 3.5280448789 2.0369179869
531 1 221.9928376175 2.3520304788 0.0
532 1 221.9928376175 5.8800753577 2.0369179869
533 1 221.1582786116 1.176014391 2.0369179869
534 1 221.1582786116 4.7040609667 0.0
535 1 222.8273966235 0.0 0.0
536 1 222.8273966235 3.5280448789 2.0369179869
537 1 224.4965146264 2.3520304788 0.0
538 1 224.4965146264 5.8800753577 2.0369179869
539 1 223.6619556295 1.176014391 2.0369179869
540 1 223.6619556295 4.7040609667 0.0
541 1 225.3310736324 0.0 0.0
542 1 225.3310736324 3.5280448789 2.0369179869
543 1 227.0001951197 2.3520304788 0.0
544 1 227.0001951197 5.8800753577 2.0369179869
545 1 226.1656361137 1.176014391 2.0369179869
546 1 226.1656361137 4.7040609667 0.0
547 1 227.8347541257 0.0 0.0
548 1 227.8347541257 3.5280448789 2.0369179869
549 1 229.5038721286 2.3520304788 0.0
550 1 229.5038721286 5.8800753577 2.0369179869
551 1 228.6693131226 1.176014391 2.0369179869
552 1 228.6693131226 4.7040609667 0.0
553 1 230.3384311345 0.0 0.0
554 1 230.3384311345 3.5280448789 2.0369179869
555 1 232.0075526219 2.3520304788 0.0
556 1 232.0075526219 5.8800753577 2.0369179869
557 1 231.1729936159 1.176014391 2.0369179869
558 1 231.1729936159 4.7040609667 0.0
559 1 232.8421116278 0.0 0.0
560 1 232.8421116278 3.5280448789 2.0369179869
561 1 234.5112296307 2.3520304788 0.0
562 1 234.5112296307 5.8800753577 2.0369179869
563 1 233.6766706247 1.176014391 2.0369179869
564 1 233.6766706247 4.7040609667 0.0
565 1 235.3457886367 0.0 0.0
566 1 235.3457886367 3.5280448789 2.0369179869
567 1 237.014910124 2.3520304788 0.0
568 1 237.014910124 5.8800753577 2.0369179869
569 1 236.1803476336 1.176014391 2.0369179869
570 1 236.1803476336 4.7040609667 0.0
571 1 237.8494691209 0.0 0.0
572 1 237.8494691209 3.5280448789 2.0369179869
573 1 239.5185871329 2.3520304788 0.0
574 1 239.5185871329 5.8800753577 2.0369179869
575 1 238.6840281269 1.176014391 2.0369179869
576 1 238.6840281269 4.7040609667 0.0
577 1 240.3531461389 0.0 0.0
578 1 240.3531461389 3.5280448789 2.0369179869
579 1 242.0222676262 2.3520304788 0.0
580 1 242.0222676262 5.8800753577 2.0369179869
581 1 241.1877051358 1.176014391 2.0369179869
582 1 241.1877051358 4.7040609667 0.0
583 1 242.8568266231 0.0 0.0
584 1 242.8568266231 3.5280448789 2.0369179869
585 1 244.5259446351 2.3520304788 0.0
586 1 244.5259446351 5.8800753577 2.0369179869
587 1 243.6913856291 1.176014391 2.0369179869
588 1 243.6913856291 4.7040609667 0.0
589 1 245.360503641 0.0 0.0
590 1 245.360503641 3.5280448789 2.0369179869
591 1 247.0296216439 2.3520304788 0.0
592 1 247.0296216439 5.8800753577 2.0369179869
593 1 246.1950626379 1.176014391 2.0369179869
594 1 246.1950626379 4.7040609667 0.0
595 1 247.8641841253 0.0 0.0
596 1 247.8641841253 3.5280448789 2.0369179869
597 1 249.5333021372 2.3520304788 0.0
598 1 249.5333021372 5.8800753577 2.0369179869
599 1 248.6987431312 1.176014391 2.0369179869
600 1 248.6987431312 4.7040609667 0.0
601 1 250.3678611341 0.0 0.0
602 1 250.3678611341 3.5280448789 2.0369179869
603 1 252.0369791461 2.3520304788 0.0
604 1 252.0369791461 5.8800753577 2.0369179869
605 1 251.2024201401 1.176014391 2.0369179869
606 1 251.2024201401 4.7040609667 0.0
607 1 252.8715416274 0.0 0.0
608 1 252.8715416274 3.5280448789 2.0369179869
609 1 254.5406596394 2.3520304788 0.0
610 1 254.5406596394 5.8800753577 2.0369179869
611 1 253.7061006334 1.176014391 2.0369179869
612 1 253.7061006334 4.7040609667 0.0
613 1 255.3752186363 0.0 0.0
614 1 255.3752186363 3.5280448789 2.0369179869
615 1 257.0443366482 2.3520304788 0.0
616 1 257.0443366482 5.8800753577 2.0369179869
617 1 256.2097776423 1.176014391 2.0369179869
618 1 256.2097776423 4.7040609667 0.0
619 1 257.8788956452 0.0 0.0
620 1 257.8788956452 3.5280448789 2.0369179869
621 1 259.5480171325 2.3520304788 0.0
622 1 259.5480171325 5.8800753577 2.0369179869
623 1 258.7134581356 1.176014391 2.0369179869
624 1 258.7134581356 4.7040609667 0.0
625 1 260.3825761384 0.0 0.0
626 1 260.3825761384 3.5280448789 2.0369179869
627 1 262.0516941504 2.3520304788 0.0
628 1 262.0516941504 5.8800753577 2.0369179869
629 1 261.2171351444 1.176014391 2.0369179869
630 1 261.2171351444 4.7040609667 0.0
631 1 262.8862531473 0.0 0.0
632 1 262.8862531473 3.5280448789 2.0369179869
633 1 264.5553746346 2.3520304788 0.0
634 1 264.5553746346 5.8800753577 2.0369179869
635 1 263.7208121533 1.176014391 2.0369179869
636 1 263.7208121533 4.7040609667 0.0
637 1 265.3899336406 0.0 0.0
638 1 265.3899336406 3.5280448789 2.0369179869
639 1 267.0590516526 2.3520304788 0.0
640 1 267.0590516526 5.8800753577 2.0369179869
641 1 266.2244926466 1.176014391 2.0369179869
642 1 266.2244926466 4.7040609667 0.0
643 1 267.8936106495 0.0 0.0
644 1 267.8936106495 3.5280448789 2.0369179869
645 1 269.5627321368 2.3520304788 0.0
646 1 269.5627321368 5.8800753577 2.0369179869
647 1 268.7281696555 1.176014391 2.0369179869
648 1 268.7281696555 4.7040609667 0.0
649 1 270.3972911428 0.0 0.0
650 1 270.3972911428 3.5280448789 2.0369179869
651 1 272.0664091457 2.3520304788 0.0
652 1 272.0664091457 5.8800753577 2.0369179869
653 1 271.2318501488 1.176014391 2.0369179869
654 1 271.2318501488 4.7040609667 0.0
655 1 272.9009681516 0.0 0.0
656 1 272.9009681516 3.5280448789 2.0369179869
657 1 274.5700861636 2.3520304788 0.0
658 1 274.5700861636 5.8800753577 2.0369179869
659 1 273.7355271576 1.176014391 2.0369179869
660 1 273.7355271576 4.7040609667 0.0
661 1 275.4046486449 0.0 0.0
662 1 275.4046486449 3.5280448789 2.0369179869
663 1 277.0737666478 2.3520304788 0.0
664 1 277.0737666478 5.8800753577 2.0369179869
665 1 276.2392076509 1.176014391 2.0369179869
666 1 276.2392076509 4.7040609667 0.0
667 1 277.9083256538 0.0 0.0
668 1 277.9083256538 3.5280448789 2.0369179869
669 1 279.5774436658 2.3520304788 0.0
670 1 279.5774436658 5.8800753577 2.0369179869
671 1 278.7428846598 1.176014391 2.0369179869
672 1 278.7428846598 4.7040609667 0.0
673 1 280.4120061471 0.0 0.0
674 1 280.4120061471 3.5280448789 2.0369179869
675 1 282.08112415 2.3520304788 0.0
676 1 282.08112415 5.8800753577 2.0369179869
677 1 281.246565144 1.176014391 2.0369179869
678 1 281.246565144 4.7040609667 0.0
679 1 282.915683156 0.0 0.0
680 1 282.915683156 3.5280448789 2.0369179869
681 1 284.5848011589 2.3520304788 0.0
682 1 284.5848011589 5.8800753577 2.0369179869
683 1 283.7502421619 1.176014391 2.0369179869
684 1 283.7502421619 4.7040609667 0.0
685 1 285.4193601648 0.0 0.0
686 1 285.4193601648 3.5280448789 2.0369179869
687 1 287.0884816521 2.3520304788 0.0
688 1 287.0884816521 5.8800753577 2.0369179869
689 1 286.2539226462 1.176014391 2.0369179869
690 1 286.2539226462 4.7040609667 0.0
691 1 287.9230406581 0.0 0.0
692 1 287.9230406581 3.5280448789 2.0369179869
693 1 289.592158661 2.3520304788 0.0
694 1 289.592158661 5.8800753577 2.0369179869
695 1 288.7575996641 1.176014391 2.0369179869
696 1 288.7575996641 4.7040609667 0.0
697 1 290.426717667 0.0 0.0
698 1 290.426717667 3.5280448789 2.0369179869
699 1 292.0958391543 2.3520304788 0.0
700 1 292.0958391543 5.8800753577 2.0369179869
701 1 291.2612801483 1.176014391 2.0369179869
702 1 291.2612801483 4.7040609667 0.0
703 1 292.9303981603 0.0 0.0
704 1 292.9303981603 3.5280448789 2.0369179869
705 1 294.5995161632 2.3520304788 0.0
706 1 294.5995161632 5.8800753577 2.0369179869
707 1 293.7649571572 1.176014391 2.0369179869
708 1 293.7649571572 4.7040609667 0.0
709 1 295.4340751692 0.0 0.0
710 1 295.4340751692 3.5280448789 2.0369179869
711 1 297.1031966565 2.3520304788 0.0
712 1 297.1031966565 5.8800753577 2.0369179869
713 1 296.2686341751 1.176014391 2.0369179869
714 1 296.2686341751 4.7040609667 0.0
715 1 297.9377556625 0.0 0.0
716 1 297.9377556625 3.5280448789 2.0369179869
717 1 299.6068736653 2.3520304788 0.0
718 1 299.6068736653 5.8800753577 2.0369179869
719 1 298.7723146594 1.176014391 2.0369179869
720 1 298.7723146594 4.7040609667 0.0
721 1 300.4414326713 0.0 0.0
722 1 300.4414326713 3.5280448789 2.0369179869
723 1 302.1105541586 2.3520304788 0.0
724 1 302.1105541586 5.8800753577 2.0369179869
725 1 301.2759916773 1.176014391 2.0369179869
726 1 301.2759916773 4.7040609667 0.0
727 1 302.9451131646 0.0 0.0
728 1 302.9451131646 3.5280448789 2.0369179869
729 1 304.6142311675 2.3520304788 0.0
730 1 304.6142311675 5.8800753577 2.0369179869
731 1 303.7796721615 1.176014391 2.0369179869
732 1 303.7796721615 4.7040609667 0.0
733 1 305.4487901735 0.0 0.0
734 1 305.4487901735 3.5280448789 2.0369179869
735 1 307.1179081764 2.3520304788 0.0
736 1 307.1179081764 5.8800753577 2.0369179869
737 1 306.2833491704 1.176014391 2.0369179869
738 1 306.2833491704 4.7040609667 0.0
739 1 307.9524706577 0.0 0.0
740 1 307.9524706577 3.5280448789 2.0369179869
741 1 309.6215886697 2.3520304788 0.0