# LAMMPS data file written by OVITO Basic 3.3.0
80352 atoms
1 atom types
0.0 382.3171990842 xlo xhi
0.0 372.0795996499 ylo yhi
0.0 8.9508440421 zlo zhi

Masses

1 95.96  # Mo

Atoms  # atomic

1 1 0.0 0.0 0.0
2 1 0.0 3.8758285463 2.237711013
3 1 1.833654453 2.5838863122 0.0
4 1 1.833654453 6.4597148584 2.237711013
5 1 0.9168272315 1.2919422241 2.237711013
6 1 0.9168272315 5.1677726344 0.0
7 1 2.7504816846 0.0 0.0
8 1 2.7504816846 3.8758285463 2.237711013
9 1 4.5841399655 2.5838863122 0.0
10 1 4.5841399655 6.4597148584 2.237711013
11 1 3.667312734 1.2919422241 2.237711013
12 1 3.667312734 5.1677726344 0.0
13 1 5.500967197 0.0 0.0
14 1 5.500967197 3.8758285463 2.237711013
15 1 7.33462165 2.5838863122 0.0
16 1 7.33462165 6.4597148584 2.237711013
17 1 6.4177944284 1.2919422241 2.237711013
18 1 6.4177944284 5.1677726344 0.0
19 1 8.2514488814 0.0 0.0
20 1 8.2514488814 3.8758285463 2.237711013
21 1 10.0851071623 2.5838863122 0.0
22 1 10.0851071623 6.4597148584 2.237711013
23 1 9.1682799309 1.2919422241 2.237711013
24 1 9.1682799309 5.1677726344 0.0
25 1 11.0019343939 0.0 0.0
26 1 11.0019343939 3.8758285463 2.237711013
27 1 12.8355888469 2.5838863122 0.0
28 1 12.8355888469 6.4597148584 2.237711013
29 1 11.9187616254 1.2919422241 2.237711013
30 1 11.9187616254 5.1677726344 0.0
31 1 13.7524160784 0.0 0.0
32 1 13.7524160784 3.8758285463 2.237711013
33 1 15.5860743593 2.5838863122 0.0
34 1 15.5860743593 6.4597148584 2.237711013
35 1 14.6692433099 1.2919422241 2.237711013
36 1 14.6692433099 5.1677726344 0.0
37 1 16.5029015908 0.0 0.0
38 1 16.5029015908 3.8758285463 2.237711013
39 1 18.3365560439 2.5838863122 0.0
40 1 18.3365560439 6.4597148584 2.237711013
41 1 17.4197288124 1.2919422241 2.237711013
42 1 17.4197288124 5.1677726344 0.0
43 1 19.2533832754 0.0 0.0
44 1 19.2533832754 3.8758285463 2.237711013
45 1 21.0870415563 2.5838863122 0.0
46 1 21.0870415563 6.4597148584 2.237711013
47 1 20.1702105068 1.2919422241 2.237711013
48 1 20.1702105068 5.1677726344 0.0
49 1 22.0038687877 0.0 0.0
50 1 22.0038687877 3.8758285463 2.237711013
51 1 23.8375232408 2.5838863122 0.0
52 1 23.8375232408 6.4597148584 2.237711013
53 1 22.9206960093 1.2919422241 2.237711013
54 1 22.9206960093 5.1677726344 0.0
55 1 24.7543504723 0.0 0.0
56 1 24.7543504723 3.8758285463 2.237711013
57 1 26.5880049253 2.5838863122 0.0
58 1 26.5880049253 6.4597148584 2.237711013
59 1 25.6711776938 1.2919422241 2.237711013
60 1 25.6711776938 5.1677726344 0.0
61 1 27.5048359747 0.0 0.0
62 1 27.5048359747 3.8758285463 2.237711013
63 1 29.3384904377 2.5838863122 0.0
64 1 29.3384904377 6.4597148584 2.237711013
65 1 28.4216632062 1.2919422241 2.237711013
66 1 28.4216632062 5.1677726344 0.0
67 1 30.2553176693 0.0 0.0
68 1 30.2553176693 3.8758285463 2.237711013
69 1 32.0889721223 2.5838863122 0.0
70 1 32.0889721223 6.4597148584 2.237711013
71 1 31.1721448908 1.2919422241 2.237711013
72 1 31.1721448908 5.1677726344 0.0
73 1 33.0058031717 0.0 0.0
74 1 33.0058031717 3.8758285463 2.237711013
75 1 34.8394576347 2.5838863122 0.0
76 1 34.8394576347 6.4597148584 2.237711013
77 1 33.9226304032 1.2919422241 2.237711013
78 1 33.9226304032 5.1677726344 0.0
79 1 35.7562848661 0.0 0.0
80 1 35.7562848661 3.8758285463 2.237711013
81 1 37.5899393192 2.5838863122 0.0
82 1 37.5899393192 6.4597148584 2.237711013
83 1 36.6731120878 1.2919422241 2.237711013
84 1 36.6731120878 5.1677726344 0.0
85 1 38.5067665507 0.0 0.0
86 1 38.5067665507 3.8758285463 2.237711013
87 1 40.3404248316 2.5838863122 0.0
88 1 40.3404248316 6.4597148584 2.237711013
89 1 39.4235976001 1.2919422241 2.237711013
90 1 39.4235976001 5.1677726344 0.0
91 1 41.2572520531 0.0 0.0
92 1 41.2572520531 3.8758285463 2.237711013
93 1 43.0909065161 2.5838863122 0.0
94 1 43.0909065161 6.4597148584 2.237711013
95 1 42.1740792846 1.2919422241 2.237711013
96 1 42.1740792846 5.1677726344 0.0
97 1 44.0077337477 0.0 0.0
98 1 44.0077337477 3.8758285463 2.237711013
99 1 45.8413920286 2.5838863122 0.0
100 1 45.8413920286 6.4597148584 2.237711013
101 1 44.9245647971 1.2919422241 2.237711013
102 1 44.9245647971 5.1677726344 0.0
103 1 46.7582192501 0.0 0.0
104 1 46.7582192501 3.8758285463 2.237711013
105 1 48.5918737131 2.5838863122 0.0
106 1 48.5918737131 6.4597148584 2.237711013
107 1 47.6750464816 1.2919422241 2.237711013
108 1 47.6750464816 5.1677726344 0.0
109 1 49.5087009346 0.0 0.0
110 1 49.5087009346 3.8758285463 2.237711013
111 1 51.3423592156 2.5838863122 0.0
112 1 51.3423592156 6.4597148584 2.237711013
113 1 50.4255281661 1.2919422241 2.237711013
114 1 50.4255281661 5.1677726344 0.0
115 1 52.2591864471 0.0 0.0
116 1 52.2591864471 3.8758285463 2.237711013
117 1 54.09284091 2.5838863122 0.0
118 1 54.09284091 6.4597148584 2.237711013
119 1 53.1760136785 1.2919422241 2.237711013
120 1 53.1760136785 5.1677726344 0.0
121 1 55.0096681315 0.0 0.0
122 1 55.0096681315 3.8758285463 2.237711013
123 1 56.8433264124 2.5838863122 0.0
124 1 56.8433264124 6.4597148584 2.237711013
125 1 55.926495363 1.2919422241 2.237711013
126 1 55.926495363 5.1677726344 0.0
127 1 57.760153644 0.0 0.0
128 1 57.760153644 3.8758285463 2.237711013
129 1 59.593808107 2.5838863122 0.0
130 1 59.593808107 6.4597148584 2.237711013
131 1 58.6769808755 1.2919422241 2.237711013
132 1 58.6769808755 5.1677726344 0.0
133 1 60.5106353285 0.0 0.0
134 1 60.5106353285 3.8758285463 2.237711013
135 1 62.3442897915 2.5838863122 0.0
136 1 62.3442897915 6.4597148584 2.237711013
137 1 61.42746256 1.2919422241 2.237711013
138 1 61.42746256 5.1677726344 0.0
139 1 63.2611208409 0.0 0.0
140 1 63.2611208409 3.8758285463 2.237711013
141 1 65.094775294 2.5838863122 0.0
142 1 65.094775294 6.4597148584 2.237711013
143 1 64.1779480725 1.2919422241 2.237711013
144 1 64.1779480725 5.1677726344 0.0
145 1 66.0116025254 0.0 0.0
146 1 66.0116025254 3.8758285463 2.237711013
147 1 67.8452569884 2.5838863122 0.0
148 1 67.8452569884 6.4597148584 2.237711013
149 1 66.9284297569 1.2919422241 2.237711013
150 1 66.9284297569 5.1677726344 0.0
151 1 68.7620880378 0.0 0.0
152 1 68.7620880378 3.8758285463 2.237711013
153 1 70.5957424908 2.5838863122 0.0
154 1 70.5957424908 6.4597148584 2.237711013
155 1 69.6789152693 1.2919422241 2.237711013
156 1 69.6789152693 5.1677726344 0.0
157 1 71.5125697224 0.0 0.0
158 1 71.5125697224 3.8758285463 2.237711013
159 1 73.3462241854 2.5838863122 0.0
160 1 73.3462241854 6.4597148584 2.237711013
161 1 72.4293969539 1.2919422241 2.237711013
162 1 72.4293969539 5.1677726344 0.0
163 1 74.2630514069 0.0 0.0
164 1 74.2630514069 3.8758285463 2.237711013
165 1 76.0967096878 2.5838863122 0.0
166 1 76.0967096878 6.4597148584 2.237711013
167 1 75.1798824563 1.2919422241 2.237711013
168 1 75.1798824563 5.1677726344 0.0
169 1 77.0135369193 0.0 0.0
170 1 77.0135369193 3.8758285463 2.237711013
171 1 78.8471913724 2.5838863122 0.0
172 1 78.8471913724 6.4597148584 2.237711013
173 1 77.9303641509 1.2919422241 2.237711013
174 1 77.9303641509 5.1677726344 0.0
175 1 79.7640186038 0.0 0.0
176 1 79.7640186038 3.8758285463 2.237711013
177 1 81.5976768848 2.5838863122 0.0
178 1 81.5976768848 6.4597148584 2.237711013
179 1 80.6808496533 1.2919422241 2.237711013
180 1 80.6808496533 5.1677726344 0.0
181 1 82.5145041162 0.0 0.0
182 1 82.5145041162 3.8758285463 2.237711013
183 1 84.3481585693 2.5838863122 0.0
184 1 84.3481585693 6.4597148584 2.237711013
185 1 83.4313313477 1.2919422241 2.237711013
186 1 83.4313313477 5.1677726344 0.0
187 1 85.2649858008 0.0 0.0
188 1 85.2649858008 3.8758285463 2.237711013
189 1 87.0986440817 2.5838863122 0.0
190 1 87.0986440817 6.4597148584 2.237711013
191 1 86.1818130323 1.2919422241 2.237711013
192 1 86.1818130323 5.1677726344 0.0
193 1 88.0154713132 0.0 0.0
194 1 88.0154713132 3.8758285463 2.237711013
195 1 89.8491257662 2.5838863122 0.0
196 1 89.8491257662 6.4597148584 2.237711013
197 1 88.9322985347 1.2919422241 2.237711013
198 1 88.9322985347 5.1677726344 0.0
199 1 90.7659529978 0.0 0.0
200 1 90.7659529978 3.8758285463 2.237711013
201 1 92.5996112787 2.5838863122 0.0
202 1 92.5996112787 6.4597148584 2.237711013
203 1 91.6827802292 1.2919422241 2.237711013
204 1 91.6827802292 5.1677726344 0.0
205 1 93.5164385102 0.0 0.0
206 1 93.5164385102 3.8758285463 2.237711013
207 1 95.3500929631 2.5838863122 0.0
208 1 95.3500929631 6.4597148584 2.237711013
209 1 94.4332657317 1.2919422241 2.237711013
210 1 94.4332657317 5.1677726344 0.0
211 1 96.2669201946 0.0 0.0
212 1 96.2669201946 3.8758285463 2.237711013
213 1 98.1005746477 2.5838863122 0.0
214 1 98.1005746477 6.4597148584 2.237711013
215 1 97.1837474261 1.2919422241 2.237711013
216 1 97.1837474261 5.1677726344 0.0
217 1 99.0174057071 0.0 0.0
218 1 99.0174057071 3.8758285463 2.237711013
219 1 100.8510601601 2.5838863122 0.0
220 1 100.8510601601 6.4597148584 2.237711013
221 1 99.9342329286 1.2919422241 2.237711013
222 1 99.9342329286 5.1677726344 0.0
223 1 101.7678873916 0.0 0.0
224 1 101.7678873916 3.8758285463 2.237711013
225 1 103.6015418446 2.5838863122 0.0
226 1 103.6015418446 6.4597148584 2.237711013
227 1 102.6847146131 1.2919422241 2.237711013
228 1 102.6847146131 5.1677726344 0.0
229 1 104.5183690762 0.0 0.0
230 1 104.5183690762 3.8758285463 2.237711013
231 1 106.3520273571 2.5838863122 0.0
232 1 106.3520273571 6.4597148584 2.237711013
233 1 105.4352001256 1.2919422241 2.237711013
234 1 105.4352001256 5.1677726344 0.0
235 1 107.2688545886 0.0 0.0
236 1 107.2688545886 3.8758285463 2.237711013
237 1 109.1025090415 2.5838863122 0.0
238 1 109.1025090415 6.4597148584 2.237711013
239 1 108.1856818101 1.2919422241 2.237711013
240 1 108.1856818101 5.1677726344 0.0
241 1 110.019336273 0.0 0.0
242 1 110.019336273 3.8758285463 2.237711013
243 1 111.852994554 2.5838863122 0.0
244 1 111.852994554 6.4597148584 2.237711013
245 1 110.9361673225 1.2919422241 2.237711013
246 1 110.9361673225 5.1677726344 0.0
247 1 112.7698217755 0.0 0.0
248 1 112.7698217755 3.8758285463 2.237711013
249 1 114.6034762385 2.5838863122 0.0
250 1 114.6034762385 6.4597148584 2.237711013
251 1 113.686649007 1.2919422241 2.237711013
252 1 113.686649007 5.1677726344 0.0
253 1 115.52030347 0.0 0.0
254 1 115.52030347 3.8758285463 2.237711013
255 1 117.3539617509 2.5838863122 0.0
256 1 117.3539617509 6.4597148584 2.237711013
257 1 116.4371306915 1.2919422241 2.237711013
258 1 116.4371306915 5.1677726344 0.0
259 1 118.2707889725 0.0 0.0
260 1 118.2707889725 3.8758285463 2.237711013
261 1 120.1044434355 2.5838863122 0.0
262 1 120.1044434355 6.4597148584 2.237711013
263 1 119.187616204 1.2919422241 2.237711013
264 1 119.187616204 5.1677726344 0.0
265 1 121.0212706669 0.0 0.0
266 1 121.0212706669 3.8758285463 2.237711013
267 1 122.8549289479 2.5838863122 0.0
268 1 122.8549289479 6.4597148584 2.237711013
269 1 121.9380978885 1.2919422241 2.237711013
270 1 121.9380978885 5.1677726344 0.0
271 1 123.7717561694 0.0 0.0
272 1 123.7717561694 3.8758285463 2.237711013
273 1 125.6054106324 2.5838863122 0.0
274 1 125.6054106324 6.4597148584 2.237711013
275 1 124.6885834008 1.2919422241 2.237711013
276 1 124.6885834008 5.1677726344 0.0
277 1 126.5222378539 0.0 0.0
278 1 126.5222378539 3.8758285463 2.237711013
279 1 128.3558923169 2.5838863122 0.0
280 1 128.3558923169 6.4597148584 2.237711013
281 1 127.4390650854 1.2919422241 2.237711013
282 1 127.4390650854 5.1677726344 0.0
283 1 129.2727233663 0.0 0.0
284 1 129.2727233663 3.8758285463 2.237711013
285 1 131.1063778293 2.5838863122 0.0
286 1 131.1063778293 6.4597148584 2.237711013
287 1 130.1895505978 1.2919422241 2.237711013
288 1 130.1895505978 5.1677726344 0.0
289 1 132.0232050509 0.0 0.0
290 1 132.0232050509 3.8758285463 2.237711013
291 1 133.8568595139 2.5838863122 0.0
292 1 133.8568595139 6.4597148584 2.237711013
293 1 132.9400322824 1.2919422241 2.237711013
294 1 132.9400322824 5.1677726344 0.0
295 1 134.7736905633 0.0 0.0
296 1 134.7736905633 3.8758285463 2.237711013
297 1 136.6073450163 2.5838863122 0.0
298 1 136.6073450163 6.4597148584 2.237711013
299 1 135.6905177948 1.2919422241 2.237711013
300 1 135.6905177948 5.1677726344 0.0
301 1 137.5241722478 0.0 0.0
302 1 137.5241722478 3.8758285463 2.237711013
303 1 139.3578267108 2.5838863122 0.0
304 1 139.3578267108 6.4597148584 2.237711013
305 1 138.4409994793 1.2919422241 2.237711013
306 1 138.4409994793 5.1677726344 0.0
307 1 140.2746539323 0.0 0.0
308 1 140.2746539323 3.8758285463 2.237711013
309 1 142.1083122132 2.5838863122 0.0
310 1 142.1083122132 6.4597148584 2.237711013
311 1 141.1914849917 1.2919422241 2.237711013
312 1 141.1914849917 5.1677726344 0.0
313 1 143.0251394447 0.0 0.0
314 1 143.0251394447 3.8758285463 2.237711013
315 1 144.8587939078 2.5838863122 0.0
316 1 144.8587939078 6.4597148584 2.237711013
317 1 143.9419666762 1.2919422241 2.237711013
318 1 143.9419666762 5.1677726344 0.0
319 1 145.7756211293 0.0 0.0
320 1 145.7756211293 3.8758285463 2.237711013
321 1 147.6092794102 2.5838863122 0.0
322 1 147.6092794102 6.4597148584 2.237711013
323 1 146.6924521887 1.2919422241 2.237711013
324 1 146.6924521887 5.1677726344 0.0
325 1 148.5261066417 0.0 0.0
326 1 148.5261066417 3.8758285463 2.237711013
327 1 150.3597610947 2.5838863122 0.0
328 1 150.3597610947 6.4597148584 2.237711013
329 1 149.4429338732 1.2919422241 2.237711013
330 1 149.4429338732 5.1677726344 0.0
331 1 151.2765883263 0.0 0.0
332 1 151.2765883263 3.8758285463 2.237711013
333 1 153.1102466072 2.5838863122 0.0
334 1 153.1102466072 6.4597148584 2.237711013
335 1 152.1934155577 1.2919422241 2.237711013
336 1 152.1934155577 5.1677726344 0.0
337 1 154.0270738386 0.0 0.0
338 1 154.0270738386 3.8758285463 2.237711013
339 1 155.8607282916 2.5838863122 0.0
340 1 155.8607282916 6.4597148584 2.237711013
341 1 154.9439010701 1.2919422241 2.237711013
342 1 154.9439010701 5.1677726344 0.0
343 1 156.7775555231 0.0 0.0
344 1 156.7775555231 3.8758285463 2.237711013
345 1 158.611213804 2.5838863122 0.0
346 1 158.611213804 6.4597148584 2.237711013
347 1 157.6943827546 1.2919422241 2.237711013
348 1 157.6943827546 5.1677726344 0.0
349 1 159.5280410356 0.0 0.0
350 1 159.5280410356 3.8758285463 2.237711013
351 1 161.3616954886 2.5838863122 0.0
352 1 161.3616954886 6.4597148584 2.237711013
353 1 160.4448682671 1.2919422241 2.237711013
354 1 160.4448682671 5.1677726344 0.0
355 1 162.2785227201 0.0 0.0
356 1 162.2785227201 3.8758285463 2.237711013
357 1 164.1121771732 2.5838863122 0.0
358 1 164.1121771732 6.4597148584 2.237711013
359 1 163.1953499516 1.2919422241 2.237711013
360 1 163.1953499516 5.1677726344 0.0
361 1 165.0290082325 0.0 0.0
362 1 165.0290082325 3.8758285463 2.237711013
363 1 166.8626626856 2.5838863122 0.0
364 1 166.8626626856 6.4597148584 2.237711013
365 1 165.9458354541 1.2919422241 2.237711013
366 1 165.9458354541 5.1677726344 0.0
367 1 167.779489917 0.0 0.0
368 1 167.779489917 3.8758285463 2.237711013
369 1 169.61314437 2.5838863122 0.0
370 1 169.61314437 6.4597148584 2.237711013
371 1 168.6963171485 1.2919422241 2.237711013
372 1 168.6963171485 5.1677726344 0.0
373 1 170.5299754294 0.0 0.0
374 1 170.5299754294 3.8758285463 2.237711013
375 1 172.3636298825 2.5838863122 0.0
376 1 172.3636298825 6.4597148584 2.237711013
377 1 171.4468026509 1.2919422241 2.237711013
378 1 171.4468026509 5.1677726344 0.0
379 1 173.280457114 0.0 0.0
380 1 173.280457114 3.8758285463 2.237711013
381 1 175.114111567 2.5838863122 0.0
382 1 175.114111567 6.4597148584 2.237711013
383 1 174.1972843355 1.2919422241 2.237711013
384 1 174.1972843355 5.1677726344 0.0
385 1 176.0309387985 0.0 0.0
386 1 176.0309387985 3.8758285463 2.237711013
387 1 177.8645970794 2.5838863122 0.0
388 1 177.8645970794 6.4597148584 2.237711013
389 1 176.9477698479 1.2919422241 2.237711013
390 1 176.9477698479 5.1677726344 0.0
391 1 178.781424311 0.0 0.0
392 1 178.781424311 3.8758285463 2.237711013
393 1 180.615078764 2.5838863122 0.0
394 1 180.615078764 6.4597148584 2.237711013
395 1 179.6982515325 1.2919422241 2.237711013
396 1 179.6982515325 5.1677726344 0.0
397 1 181.5319059954 0.0 0.0
398 1 181.5319059954 3.8758285463 2.237711013
399 1 183.3655642763 2.5838863122 0.0
400 1 183.3655642763 6.4597148584 2.237711013
401 1 182.4487370449 1.2919422241 2.237711013
402 1 182.4487370449 5.1677726344 0.0
403 1 184.2823915078 0.0 0.0
404 1 184.2823915078 3.8758285463 2.237711013
405 1 186.1160459609 2.5838863122 0.0
406 1 186.1160459609 6.4597148584 2.237711013
407 1 185.1992187293 1.2919422241 2.237711013
408 1 185.1992187293 5.1677726344 0.0
409 1 187.0328731924 0.0 0.0
410 1 187.0328731924 3.8758285463 2.237711013
411 1 188.8665314733 2.5838863122 0.0
412 1 188.8665314733 6.4597148584 2.237711013
413 1 187.9497004139 1.2919422241 2.237711013
414 1 187.9497004139 5.1677726344 0.0
415 1 189.7833586948 0.0 0.0
416 1 189.7833586948 3.8758285463 2.237711013
417 1 191.6170131578 2.5838863122 0.0
418 1 191.6170131578 6.4597148584 2.237711013
419 1 190.7001859263 1.2919422241 2.237711013
420 1 190.7001859263 5.1677726344 0.0
421 1 192.5338403894 0.0 0.0
422 1 192.5338403894 3.8758285463 2.237711013
423 1 194.3674986703 2.5838863122 0.0
424 1 194.3674986703 6.4597148584 2.237711013
425 1 193.4506676109 1.2919422241 2.237711013
426 1 193.4506676109 5.1677726344 0.0
427 1 195.2843258918 0.0 0.0
428 1 195.2843258918 3.8758285463 2.237711013
429 1 197.1179803547 2.5838863122 0.0
430 1 197.1179803547 6.4597148584 2.237711013
431 1 196.2011531233 1.2919422241 2.237711013
432 1 196.2011531233 5.1677726344 0.0
433 1 198.0348075762 0.0 0.0
434 1 198.0348075762 3.8758285463 2.237711013
435 1 199.8684620393 2.5838863122 0.0
436 1 199.8684620393 6.4597148584 2.237711013
437 1 198.9516348078 1.2919422241 2.237711013
438 1 198.9516348078 5.1677726344 0.0
439 1 200.7852930887 0.0 0.0
440 1 200.7852930887 3.8758285463 2.237711013
441 1 202.6189475517 2.5838863122 0.0
442 1 202.6189475517 6.4597148584 2.237711013
443 1 201.7021203202 1.2919422241 2.237711013
444 1 201.7021203202 5.1677726344 0.0
445 1 203.5357747732 0.0 0.0
446 1 203.5357747732 3.8758285463 2.237711013
447 1 205.3694292363 2.5838863122 0.0
448 1 205.3694292363 6.4597148584 2.237711013
449 1 204.4526020047 1.2919422241 2.237711013
450 1 204.4526020047 5.1677726344 0.0
451 1 206.2862602857 0.0 0.0
452 1 206.2862602857 3.8758285463 2.237711013
453 1 208.1199147487 2.5838863122 0.0
454 1 208.1199147487 6.4597148584 2.237711013
455 1 207.2030875172 1.2919422241 2.237711013
456 1 207.2030875172 5.1677726344 0.0
457 1 209.0367419702 0.0 0.0
458 1 209.0367419702 3.8758285463 2.237711013
459 1 210.8703964331 2.5838863122 0.0
460 1 210.8703964331 6.4597148584 2.237711013
461 1 209.9535692017 1.2919422241 2.237711013
462 1 209.9535692017 5.1677726344 0.0
463 1 211.7872236547 0.0 0.0
464 1 211.7872236547 3.8758285463 2.237711013
465 1 213.6208819357 2.5838863122 0.0
466 1 213.6208819357 6.4597148584 2.237711013
467 1 212.704054714 1.2919422241 2.237711013
468 1 212.704054714 5.1677726344 0.0
469 1 214.5377091671 0.0 0.0
470 1 214.5377091671 3.8758285463 2.237711013
471 1 216.3713636301 2.5838863122 0.0
472 1 216.3713636301 6.4597148584 2.237711013
473 1 215.4545363986 1.2919422241 2.237711013
474 1 215.4545363986 5.1677726344 0.0
475 1 217.2881908516 0.0 0.0
476 1 217.2881908516 3.8758285463 2.237711013
477 1 219.1218491326 2.5838863122 0.0
478 1 219.1218491326 6.4597148584 2.237711013
479 1 218.205021911 1.2919422241 2.237711013
480 1 218.205021911 5.1677726344 0.0
481 1 220.0386763641 0.0 0.0
482 1 220.0386763641 3.8758285463 2.237711013
483 1 221.8723308171 2.5838863122 0.0
484 1 221.8723308171 6.4597148584 2.237711013
485 1 220.9555035956 1.2919422241 2.237711013
486 1 220.9555035956 5.1677726344 0.0
487 1 222.7891580486 0.0 0.0
488 1 222.7891580486 3.8758285463 2.237711013
489 1 224.6228163295 2.5838863122 0.0
490 1 224.6228163295 6.4597148584 2.237711013
491 1 223.70598528 1.2919422241 2.237711013
492 1 223.70598528 5.1677726344 0.0
493 1 225.5396435611 0.0 0.0
494 1 225.5396435611 3.8758285463 2.237711013
495 1 227.373298014 2.5838863122 0.0
496 1 227.373298014 6.4597148584 2.237711013
497 1 226.4564707925 1.2919422241 2.237711013
498 1 226.4564707925 5.1677726344 0.0
499 1 228.2901252455 0.0 0.0
500 1 228.2901252455 3.8758285463 2.237711013
501 1 230.1237835264 2.5838863122 0.0
502 1 230.1237835264 6.4597148584 2.237711013
503 1 229.206952477 1.2919422241 2.237711013
504 1 229.206952477 5.1677726344 0.0
505 1 231.0406107579 0.0 0.0
506 1 231.0406107579 3.8758285463 2.237711013
507 1 232.874265211 2.5838863122 0.0
508 1 232.874265211 6.4597148584 2.237711013
509 1 231.9574379894 1.2919422241 2.237711013
510 1 231.9574379894 5.1677726344 0.0
511 1 233.7910924425 0.0 0.0
512 1 233.7910924425 3.8758285463 2.237711013
513 1 235.6247468955 2.5838863122 0.0
514 1 235.6247468955 6.4597148584 2.237711013
515 1 234.707919674 1.2919422241 2.237711013
516 1 234.707919674 5.1677726344 0.0
517 1 236.5415779549 0.0 0.0
518 1 236.5415779549 3.8758285463 2.237711013
519 1 238.3752324079 2.5838863122 0.0
520 1 238.3752324079 6.4597148584 2.237711013
521 1 237.4584051764 1.2919422241 2.237711013
522 1 237.4584051764 5.1677726344 0.0
523 1 239.2920596395 0.0 0.0
524 1 239.2920596395 3.8758285463 2.237711013
525 1 241.1257140924 2.5838863122 0.0
526 1 241.1257140924 6.4597148584 2.237711013
527 1 240.2088868709 1.2919422241 2.237711013
528 1 240.2088868709 5.1677726344 0.0
529 1 242.0425451518 0.0 0.0
530 1 242.0425451518 3.8758285463 2.237711013
531 1 243.8761996048 2.5838863122 0.0
532 1 243.8761996048 6.4597148584 2.237711013
533 1 242.9593723734 1.2919422241 2.237711013
534 1 242.9593723734 5.1677726344 0.0
535 1 244.7930268363 0.0 0.0
536 1 244.7930268363 3.8758285463 2.237711013
537 1 246.6266812894 2.5838863122 0.0
538 1 246.6266812894 6.4597148584 2.237711013
539 1 245.7098540679 1.2919422241 2.237711013
540 1 245.7098540679 5.1677726344 0.0
541 1 247.5435085209 0.0 0.0
542 1 247.5435085209 3.8758285463 2.237711013
543 1 249.3771668018 2.5838863122 0.0
544 1 249.3771668018 6.4597148584 2.237711013
545 1 248.4603395703 1.2919422241 2.237711013
546 1 248.4603395703 5.1677726344 0.0
547 1 250.2939940333 0.0 0.0
548 1 250.2939940333 3.8758285463 2.237711013
549 1 252.1276484864 2.5838863122 0.0
550 1 252.1276484864 6.4597148584 2.237711013
551 1 251.2108212548 1.2919422241 2.237711013
552 1 251.2108212548 5.1677726344 0.0
553 1 253.0444757178 0.0 0.0
554 1 253.0444757178 3.8758285463 2.237711013
555 1 254.8781339988 2.5838863122 0.0
556 1 254.8781339988 6.4597148584 2.237711013
557 1 253.9613067673 1.2919422241 2.237711013
558 1 253.9613067673 5.1677726344 0.0
559 1 255.7949612302 0.0 0.0
560 1 255.7949612302 3.8758285463 2.237711013
561 1 257.6286156832 2.5838863122 0.0
562 1 257.6286156832 6.4597148584 2.237711013
563 1 256.7117884517 1.2919422241 2.237711013
564 1 256.7117884517 5.1677726344 0.0
565 1 258.5454429147 0.0 0.0
566 1 258.5454429147 3.8758285463 2.237711013
567 1 260.3791011957 2.5838863122 0.0
568 1 260.3791011957 6.4597148584 2.237711013
569 1 259.4622701363 1.2919422241 2.237711013
570 1 259.4622701363 5.1677726344 0.0
571 1 261.2959284172 0.0 0.0
572 1 261.2959284172 3.8758285463 2.237711013
573 1 263.1295828802 2.5838863122 0.0
574 1 263.1295828802 6.4597148584 2.237711013
575 1 262.2127556487 1.2919422241 2.237711013
576 1 262.2127556487 5.1677726344 0.0
577 1 264.0464101117 0.0 0.0
578 1 264.0464101117 3.8758285463 2.237711013
579 1 265.8800683926 2.5838863122 0.0
580 1 265.8800683926 6.4597148584 2.237711013
581 1 264.9632373332 1.2919422241 2.237711013
582 1 264.9632373332 5.1677726344 0.0
583 1 266.7968956142 0.0 0.0
584 1 266.7968956142 3.8758285463 2.237711013
585 1 268.6305500772 2.5838863122 0.0
586 1 268.6305500772 6.4597148584 2.237711013
587 1 267.7137228457 1.2919422241 2.237711013
588 1 267.7137228457 5.1677726344 0.0
589 1 269.5473773086 0.0 0.0
590 1 269.5473773086 3.8758285463 2.237711013
591 1 271.3810317616 2.5838863122 0.0
592 1 271.3810317616 6.4597148584 2.237711013
593 1 270.4642045301 1.2919422241 2.237711013
594 1 270.4642045301 5.1677726344 0.0
595 1 272.2978628111 0.0 0.0
596 1 272.2978628111 3.8758285463 2.237711013
597 1 274.1315172741 2.5838863122 0.0
598 1 274.1315172741 6.4597148584 2.237711013
599 1 273.2146900426 1.2919422241 2.237711013
600 1 273.2146900426 5.1677726344 0.0
601 1 275.0483444956 0.0 0.0
602 1 275.0483444956 3.8758285463 2.237711013
603 1 276.8819989586 2.5838863122 0.0
604 1 276.8819989586 6.4597148584 2.237711013
605 1 275.9651717271 1.2919422241 2.237711013
606 1 275.9651717271 5.1677726344 0.0
607 1 277.798830008 0.0 0.0
608 1 277.798830008 3.8758285463 2.237711013
609 1 279.6324844711 2.5838863122 0.0
610 1 279.6324844711 6.4597148584 2.237711013
611 1 278.7156572395 1.2919422241 2.237711013
612 1 278.7156572395 5.1677726344 0.0
613 1 280.5493116926 0.0 0.0
614 1 280.5493116926 3.8758285463 2.237711013
615 1 282.3829661555 2.5838863122 0.0
616 1 282.3829661555 6.4597148584 2.237711013
617 1 281.4661389241 1.2919422241 2.237711013
618 1 281.4661389241 5.1677726344 0.0
619 1 283.2997933771 0.0 0.0
620 1 283.2997933771 3.8758285463 2.237711013
621 1 285.133451658 2.5838863122 0.0
622 1 285.133451658 6.4597148584 2.237711013
623 1 284.2166244365 1.2919422241 2.237711013
624 1 284.2166244365 5.1677726344 0.0
625 1 286.0502788894 0.0 0.0
626 1 286.0502788894 3.8758285463 2.237711013
627 1 287.8839333525 2.5838863122 0.0
628 1 287.8839333525 6.4597148584 2.237711013
629 1 286.967106121 1.2919422241 2.237711013
630 1 286.967106121 5.1677726344 0.0
631 1 288.800760574 0.0 0.0
632 1 288.800760574 3.8758285463 2.237711013
633 1 290.6344188549 2.5838863122 0.0
634 1 290.6344188549 6.4597148584 2.237711013
635 1 289.7175878055 1.2919422241 2.237711013
636 1 289.7175878055 5.1677726344 0.0
637 1 291.5512460864 0.0 0.0
638 1 291.5512460864 3.8758285463 2.237711013
639 1 293.3849005495 2.5838863122 0.0
640 1 293.3849005495 6.4597148584 2.237711013
641 1 292.4680733179 1.2919422241 2.237711013
642 1 292.4680733179 5.1677726344 0.0
643 1 294.301727771 0.0 0.0
644 1 294.301727771 3.8758285463 2.237711013
645 1 296.1353860519 2.5838863122 0.0
646 1 296.1353860519 6.4597148584 2.237711013
647 1 295.2185550025 1.2919422241 2.237711013
648 1 295.2185550025 5.1677726344 0.0
649 1 297.0522132834 0.0 0.0
650 1 297.0522132834 3.8758285463 2.237711013
651 1 298.8858677364 2.5838863122 0.0
652 1 298.8858677364 6.4597148584 2.237711013
653 1 297.9690405149 1.2919422241 2.237711013
654 1 297.9690405149 5.1677726344 0.0
655 1 299.8026949679 0.0 0.0
656 1 299.8026949679 3.8758285463 2.237711013
657 1 301.6363494309 2.5838863122 0.0
658 1 301.6363494309 6.4597148584 2.237711013
659 1 300.7195221994 1.2919422241 2.237711013
660 1 300.7195221994 5.1677726344 0.0
661 1 302.5531804803 0.0 0.0
662 1 302.5531804803 3.8758285463 2.237711013
663 1 304.3868349333 2.5838863122 0.0
664 1 304.3868349333 6.4597148584 2.237711013
665 1 303.4700077118 1.2919422241 2.237711013
666 1 303.4700077118 5.1677726344 0.0
667 1 305.3036621648 0.0 0.0
668 1 305.3036621648 3.8758285463 2.237711013
669 1 307.1373166279 2.5838863122 0.0
670 1 307.1373166279 6.4597148584 2.237711013
671 1 306.2204893964 1.2919422241 2.237711013
672 1 306.2204893964 5.1677726344 0.0
673 1 308.0541476773 0.0 0.0
674 1 308.0541476773 3.8758285463 2.237711013
675 1 309.8878021303 2.5838863122 0.0
676 1 309.8878021303 6.4597148584 2.237711013
677 1 308.9709748988 1.2919422241 2.237711013
678 1 308.9709748988 5.1677726344 0.0
679 1 310.8046293618 0.0 0.0
680 1 310.8046293618 3.8758285463 2.237711013
681 1 312.6382838149 2.5838863122 0.0
682 1 312.6382838149 6.4597148584 2.237711013
683 1 311.7214565932 1.2919422241 2.237711013
684 1 311.7214565932 5.1677726344 0.0
685 1 313.5551110463 0.0 0.0
686 1 313.5551110463 3.8758285463 2.237711013
687 1 315.3887693272 2.5838863122 0.0
688 1 315.3887693272 6.4597148584 2.237711013
689 1 314.4719420958 1.2919422241 2.237711013
690 1 314.4719420958 5.1677726344 0.0
691 1 316.3055965587 0.0 0.0
692 1 316.3055965587 3.8758285463 2.237711013
693 1 318.1392510117 2.5838863122 0.0
694 1 318.1392510117 6.4597148584 2.237711013
695 1 317.2224237902 1.2919422241 2.237711013
696 1 317.2224237902 5.1677726344 0.0
697 1 319.0560782432 0.0 0.0
698 1 319.0560782432 3.8758285463 2.237711013
699 1 320.8897365242 2.5838863122 0.0
700 1 320.8897365242 6.4597148584 2.237711013
701 1 319.9729092926 1.2919422241 2.237711013
702 1 319.9729092926 5.1677726344 0.0
703 1 321.8065637557 0.0 0.0
704 1 321.8065637557 3.8758285463 2.237711013
705 1 323.6402182087 2.5838863122 0.0
706 1 323.6402182087 6.4597148584 2.237711013
707 1 322.7233909772 1.2919422241 2.237711013
708 1 322.7233909772 5.1677726344 0.0
709 1 324.5570454402 0.0 0.0
710 1 324.5570454402 3.8758285463 2.237711013
711 1 326.3907037211 2.5838863122 0.0
712 1 326.3907037211 6.4597148584 2.237711013
713 1 325.4738726716 1.2919422241 2.237711013
714 1 325.4738726716 5.1677726344 0.0
715 1 327.3075309527 0.0 0.0
716 1 327.3075309527 3.8758285463 2.237711013
717 1 329.1411854056 2.5838863122 0.0
718 1 329.1411854056 6.4597148584 2.237711013
719 1 328.2243581742 1.2919422241 2.237711013
720 1 328.2243581742 5.1677726344 0.0
721 1 330.0580126371 0.0 0.0
722 1 330.0580126371 3.8758285463 2.237711013
723 1 331.891670918 2.5838863122 0.0
724 1 331.891670918 6.4597148584 2.237711013
725 1 330.9748398686 1.2919422241 2.237711013
726 1 330.9748398686 5.1677726344 0.0
727 1 332.8084981495 0.0 0.0
728 1 332.8084981495 3.8758285463 2.237711013
729 1 334.6421526026 2.5838863122 0.0
730 1 334.6421526026 6.4597148584 2.237711013
731 1 333.7253253711 1.2919422241 2.237711013
732 1 333.7253253711 5.1677726344 0.0
733 1 335.5589798341 0.0 0.0
734 1 335.5589798341 3.8758285463 2.237711013
735 1 337.3926342871 2.5838863122 0.0
736 1 337.3926342871 6.4597148584 2.237711013
737 1 336.4758070556 1.2919422241 2.237711013
738 1 336.4758070556 5.1677726344 0.0
739 1 338.3094653365 0.0 0.0
740 1 338.3094653365 3.8758285463 2.237711013
741 1 340.1431197996 2.5838863122 0.0
742 1 340.1431197996 6.4597148584 2.237711013
743 1 339.226292568 1.2919422241 2.237711013
744 1 339.226292568 5.1677726344 0.0
745 1 341.059947031 0.0 0.0
746 1 341.059947031 3.8758285463 2.237711013
747 1 342.893601484 2.5838863122 0.0