# LAMMPS data file written by OVITO Basic 3.3.0
70308 atoms
1 atom types
0.0 348.0113271906 xlo xhi
0.0 342.202221416 ylo yhi
0.0 7.0560908829 zlo zhi

Masses

1 95.96  # Mo

Atoms  # atomic

1 1 0.0 0.0 0.0
2 1 0.0 2.0369176602 3.5280454415
3 1 1.6691180029 0.0 2.3520302701
4 1 1.6691180029 2.0369176602 5.8800757116
5 1 0.834559006 2.0369176602 1.1760151714
6 1 0.834559006 0.0 4.7040606128
7 1 2.5036770089 0.0 0.0
8 1 2.5036770089 2.0369176602 3.5280454415
9 1 4.1727984962 0.0 2.3520302701
10 1 4.1727984962 2.0369176602 5.8800757116
11 1 3.3382394902 2.0369176602 1.1760151714
12 1 3.3382394902 0.0 4.7040606128
13 1 5.0073575022 0.0 0.0
14 1 5.0073575022 2.0369176602 3.5280454415
15 1 6.6764755051 0.0 2.3520302701
16 1 6.6764755051 2.0369176602 5.8800757116
17 1 5.8419165081 2.0369176602 1.1760151714
18 1 5.8419165081 0.0 4.7040606128
19 1 7.511034511 0.0 0.0
20 1 7.511034511 2.0369176602 3.5280454415
21 1 9.1801559983 0.0 2.3520302701
22 1 9.1801559983 2.0369176602 5.8800757116
23 1 8.3455969924 2.0369176602 1.1760151714
24 1 8.3455969924 0.0 4.7040606128
25 1 10.0147150043 0.0 0.0
26 1 10.0147150043 2.0369176602 3.5280454415
27 1 11.6838330072 0.0 2.3520302701
28 1 11.6838330072 2.0369176602 5.8800757116
29 1 10.8492740103 2.0369176602 1.1760151714
30 1 10.8492740103 0.0 4.7040606128
31 1 12.5183920132 0.0 0.0
32 1 12.5183920132 2.0369176602 3.5280454415
33 1 14.1875135005 0.0 2.3520302701
34 1 14.1875135005 2.0369176602 5.8800757116
35 1 13.3529510192 2.0369176602 1.1760151714
36 1 13.3529510192 0.0 4.7040606128
37 1 15.0220725065 0.0 0.0
38 1 15.0220725065 2.0369176602 3.5280454415
39 1 16.6911905094 0.0 2.3520302701
40 1 16.6911905094 2.0369176602 5.8800757116
41 1 15.8566315034 2.0369176602 1.1760151714
42 1 15.8566315034 0.0 4.7040606128
43 1 17.5257495154 0.0 0.0
44 1 17.5257495154 2.0369176602 3.5280454415
45 1 19.1948710027 0.0 2.3520302701
46 1 19.1948710027 2.0369176602 5.8800757116
47 1 18.3603085213 2.0369176602 1.1760151714
48 1 18.3603085213 0.0 4.7040606128
49 1 20.0294300086 0.0 0.0
50 1 20.0294300086 2.0369176602 3.5280454415
51 1 21.6985480115 0.0 2.3520302701
52 1 21.6985480115 2.0369176602 5.8800757116
53 1 20.8639890056 2.0369176602 1.1760151714
54 1 20.8639890056 0.0 4.7040606128
55 1 22.5331070175 0.0 0.0
56 1 22.5331070175 2.0369176602 3.5280454415
57 1 24.2022250204 0.0 2.3520302701
58 1 24.2022250204 2.0369176602 5.8800757116
59 1 23.3676660144 2.0369176602 1.1760151714
60 1 23.3676660144 0.0 4.7040606128
61 1 25.0367875017 0.0 0.0
62 1 25.0367875017 2.0369176602 3.5280454415
63 1 26.7059055137 0.0 2.3520302701
64 1 26.7059055137 2.0369176602 5.8800757116
65 1 25.8713465077 2.0369176602 1.1760151714
66 1 25.8713465077 0.0 4.7040606128
67 1 27.5404645197 0.0 0.0
68 1 27.5404645197 2.0369176602 3.5280454415
69 1 29.2095825226 0.0 2.3520302701
70 1 29.2095825226 2.0369176602 5.8800757116
71 1 28.3750235166 2.0369176602 1.1760151714
72 1 28.3750235166 0.0 4.7040606128
73 1 30.0441450039 0.0 0.0
74 1 30.0441450039 2.0369176602 3.5280454415
75 1 31.7132630159 0.0 2.3520302701
76 1 31.7132630159 2.0369176602 5.8800757116
77 1 30.8787040099 2.0369176602 1.1760151714
78 1 30.8787040099 0.0 4.7040606128
79 1 32.5478220218 0.0 0.0
80 1 32.5478220218 2.0369176602 3.5280454415
81 1 34.2169400247 0.0 2.3520302701
82 1 34.2169400247 2.0369176602 5.8800757116
83 1 33.3823810188 2.0369176602 1.1760151714
84 1 33.3823810188 0.0 4.7040606128
85 1 35.0514990307 0.0 0.0
86 1 35.0514990307 2.0369176602 3.5280454415
87 1 36.720620518 0.0 2.3520302701
88 1 36.720620518 2.0369176602 5.8800757116
89 1 35.886061512 2.0369176602 1.1760151714
90 1 35.886061512 0.0 4.7040606128
91 1 37.5551795149 0.0 0.0
92 1 37.5551795149 2.0369176602 3.5280454415
93 1 39.2242975269 0.0 2.3520302701
94 1 39.2242975269 2.0369176602 5.8800757116
95 1 38.3897385209 2.0369176602 1.1760151714
96 1 38.3897385209 0.0 4.7040606128
97 1 40.0588565329 0.0 0.0
98 1 40.0588565329 2.0369176602 3.5280454415
99 1 41.7279780202 0.0 2.3520302701
100 1 41.7279780202 2.0369176602 5.8800757116
101 1 40.8934190142 2.0369176602 1.1760151714
102 1 40.8934190142 0.0 4.7040606128
103 1 42.5625370171 0.0 0.0
104 1 42.5625370171 2.0369176602 3.5280454415
105 1 44.2316550291 0.0 2.3520302701
106 1 44.2316550291 2.0369176602 5.8800757116
107 1 43.3970960231 2.0369176602 1.1760151714
108 1 43.3970960231 0.0 4.7040606128
109 1 45.066214026 0.0 0.0
110 1 45.066214026 2.0369176602 3.5280454415
111 1 46.7353355133 0.0 2.3520302701
112 1 46.7353355133 2.0369176602 5.8800757116
113 1 45.9007730319 2.0369176602 1.1760151714
114 1 45.9007730319 0.0 4.7040606128
115 1 47.5698945193 0.0 0.0
116 1 47.5698945193 2.0369176602 3.5280454415
117 1 49.2390125312 0.0 2.3520302701
118 1 49.2390125312 2.0369176602 5.8800757116
119 1 48.4044535252 2.0369176602 1.1760151714
120 1 48.4044535252 0.0 4.7040606128
121 1 50.0735715281 0.0 0.0
122 1 50.0735715281 2.0369176602 3.5280454415
123 1 51.7426930154 0.0 2.3520302701
124 1 51.7426930154 2.0369176602 5.8800757116
125 1 50.9081305341 2.0369176602 1.1760151714
126 1 50.9081305341 0.0 4.7040606128
127 1 52.5772520214 0.0 0.0
128 1 52.5772520214 2.0369176602 3.5280454415
129 1 54.2463700334 0.0 2.3520302701
130 1 54.2463700334 2.0369176602 5.8800757116
131 1 53.4118110274 2.0369176602 1.1760151714
132 1 53.4118110274 0.0 4.7040606128
133 1 55.0809290303 0.0 0.0
134 1 55.0809290303 2.0369176602 3.5280454415
135 1 56.7500470423 0.0 2.3520302701
136 1 56.7500470423 2.0369176602 5.8800757116
137 1 55.9154880363 2.0369176602 1.1760151714
138 1 55.9154880363 0.0 4.7040606128
139 1 57.5846095236 0.0 0.0
140 1 57.5846095236 2.0369176602 3.5280454415
141 1 59.2537275265 0.0 2.3520302701
142 1 59.2537275265 2.0369176602 5.8800757116
143 1 58.4191685296 2.0369176602 1.1760151714
144 1 58.4191685296 0.0 4.7040606128
145 1 60.0882865324 0.0 0.0
146 1 60.0882865324 2.0369176602 3.5280454415
147 1 61.7574045444 0.0 2.3520302701
148 1 61.7574045444 2.0369176602 5.8800757116
149 1 60.9228455384 2.0369176602 1.1760151714
150 1 60.9228455384 0.0 4.7040606128
151 1 62.5919670257 0.0 0.0
152 1 62.5919670257 2.0369176602 3.5280454415
153 1 64.2610850286 0.0 2.3520302701
154 1 64.2610850286 2.0369176602 5.8800757116
155 1 63.4265260317 2.0369176602 1.1760151714
156 1 63.4265260317 0.0 4.7040606128
157 1 65.0956440346 0.0 0.0
158 1 65.0956440346 2.0369176602 3.5280454415
159 1 66.7647620466 0.0 2.3520302701
160 1 66.7647620466 2.0369176602 5.8800757116
161 1 65.9302030406 2.0369176602 1.1760151714
162 1 65.9302030406 0.0 4.7040606128
163 1 67.5993210435 0.0 0.0
164 1 67.5993210435 2.0369176602 3.5280454415
165 1 69.2684425308 0.0 2.3520302701
166 1 69.2684425308 2.0369176602 5.8800757116
167 1 68.4338835248 2.0369176602 1.1760151714
168 1 68.4338835248 0.0 4.7040606128
169 1 70.1030015368 0.0 0.0
170 1 70.1030015368 2.0369176602 3.5280454415
171 1 71.7721195397 0.0 2.3520302701
172 1 71.7721195397 2.0369176602 5.8800757116
173 1 70.9375605428 2.0369176602 1.1760151714
174 1 70.9375605428 0.0 4.7040606128
175 1 72.6066785456 0.0 0.0
176 1 72.6066785456 2.0369176602 3.5280454415
177 1 74.275800033 0.0 2.3520302701
178 1 74.275800033 2.0369176602 5.8800757116
179 1 73.441241027 2.0369176602 1.1760151714
180 1 73.441241027 0.0 4.7040606128
181 1 75.1103590389 0.0 0.0
182 1 75.1103590389 2.0369176602 3.5280454415
183 1 76.7794770418 0.0 2.3520302701
184 1 76.7794770418 2.0369176602 5.8800757116
185 1 75.9449180449 2.0369176602 1.1760151714
186 1 75.9449180449 0.0 4.7040606128
187 1 77.6140360478 0.0 0.0
188 1 77.6140360478 2.0369176602 3.5280454415
189 1 79.2831575351 0.0 2.3520302701
190 1 79.2831575351 2.0369176602 5.8800757116
191 1 78.4485950538 2.0369176602 1.1760151714
192 1 78.4485950538 0.0 4.7040606128
193 1 80.1177165411 0.0 0.0
194 1 80.1177165411 2.0369176602 3.5280454415
195 1 81.786834544 0.0 2.3520302701
196 1 81.786834544 2.0369176602 5.8800757116
197 1 80.952275538 2.0369176602 1.1760151714
198 1 80.952275538 0.0 4.7040606128
199 1 82.62139355 0.0 0.0
200 1 82.62139355 2.0369176602 3.5280454415
201 1 84.2905150373 0.0 2.3520302701
202 1 84.2905150373 2.0369176602 5.8800757116
203 1 83.4559525559 2.0369176602 1.1760151714
204 1 83.4559525559 0.0 4.7040606128
205 1 85.1250740433 0.0 0.0
206 1 85.1250740433 2.0369176602 3.5280454415
207 1 86.7941920461 0.0 2.3520302701
208 1 86.7941920461 2.0369176602 5.8800757116
209 1 85.9596330402 2.0369176602 1.1760151714
210 1 85.9596330402 0.0 4.7040606128
211 1 87.6287510521 0.0 0.0
212 1 87.6287510521 2.0369176602 3.5280454415
213 1 89.297869055 0.0 2.3520302701
214 1 89.297869055 2.0369176602 5.8800757116
215 1 88.4633100581 2.0369176602 1.1760151714
216 1 88.4633100581 0.0 4.7040606128
217 1 90.1324315454 0.0 0.0
218 1 90.1324315454 2.0369176602 3.5280454415
219 1 91.8015495483 0.0 2.3520302701
220 1 91.8015495483 2.0369176602 5.8800757116
221 1 90.9669905423 2.0369176602 1.1760151714
222 1 90.9669905423 0.0 4.7040606128
223 1 92.6361085543 0.0 0.0
224 1 92.6361085543 2.0369176602 3.5280454415
225 1 94.3052265572 0.0 2.3520302701
226 1 94.3052265572 2.0369176602 5.8800757116
227 1 93.4706675512 2.0369176602 1.1760151714
228 1 93.4706675512 0.0 4.7040606128
229 1 95.1397855632 0.0 0.0
230 1 95.1397855632 2.0369176602 3.5280454415
231 1 96.8089070505 0.0 2.3520302701
232 1 96.8089070505 2.0369176602 5.8800757116
233 1 95.9743480445 2.0369176602 1.1760151714
234 1 95.9743480445 0.0 4.7040606128
235 1 97.6434660565 0.0 0.0
236 1 97.6434660565 2.0369176602 3.5280454415
237 1 99.3125840593 0.0 2.3520302701
238 1 99.3125840593 2.0369176602 5.8800757116
239 1 98.4780250534 2.0369176602 1.1760151714
240 1 98.4780250534 0.0 4.7040606128
241 1 100.1471430653 0.0 0.0
242 1 100.1471430653 2.0369176602 3.5280454415
243 1 101.8162645526 0.0 2.3520302701
244 1 101.8162645526 2.0369176602 5.8800757116
245 1 100.9817055467 2.0369176602 1.1760151714
246 1 100.9817055467 0.0 4.7040606128
247 1 102.6508235495 0.0 0.0
248 1 102.6508235495 2.0369176602 3.5280454415
249 1 104.3199415615 0.0 2.3520302701
250 1 104.3199415615 2.0369176602 5.8800757116
251 1 103.4853825555 2.0369176602 1.1760151714
252 1 103.4853825555 0.0 4.7040606128
253 1 105.1545005675 0.0 0.0
254 1 105.1545005675 2.0369176602 3.5280454415
255 1 106.8236220548 0.0 2.3520302701
256 1 106.8236220548 2.0369176602 5.8800757116
257 1 105.9890595644 2.0369176602 1.1760151714
258 1 105.9890595644 0.0 4.7040606128
259 1 107.6581810517 0.0 0.0
260 1 107.6581810517 2.0369176602 3.5280454415
261 1 109.3272990637 0.0 2.3520302701
262 1 109.3272990637 2.0369176602 5.8800757116
263 1 108.4927400577 2.0369176602 1.1760151714
264 1 108.4927400577 0.0 4.7040606128
265 1 110.1618580696 0.0 0.0
266 1 110.1618580696 2.0369176602 3.5280454415
267 1 111.830979557 0.0 2.3520302701
268 1 111.830979557 2.0369176602 5.8800757116
269 1 110.9964170666 2.0369176602 1.1760151714
270 1 110.9964170666 0.0 4.7040606128
271 1 112.6655385539 0.0 0.0
272 1 112.6655385539 2.0369176602 3.5280454415
273 1 114.3346565658 0.0 2.3520302701
274 1 114.3346565658 2.0369176602 5.8800757116
275 1 113.5000975598 2.0369176602 1.1760151714
276 1 113.5000975598 0.0 4.7040606128
277 1 115.1692155627 0.0 0.0
278 1 115.1692155627 2.0369176602 3.5280454415
279 1 116.8383335747 0.0 2.3520302701
280 1 116.8383335747 2.0369176602 5.8800757116
281 1 116.0037745687 2.0369176602 1.1760151714
282 1 116.0037745687 0.0 4.7040606128
283 1 117.672896056 0.0 0.0
284 1 117.672896056 2.0369176602 3.5280454415
285 1 119.342014068 0.0 2.3520302701
286 1 119.342014068 2.0369176602 5.8800757116
287 1 118.507455062 2.0369176602 1.1760151714
288 1 118.507455062 0.0 4.7040606128
289 1 120.1765730649 0.0 0.0
290 1 120.1765730649 2.0369176602 3.5280454415
291 1 121.8456910769 0.0 2.3520302701
292 1 121.8456910769 2.0369176602 5.8800757116
293 1 121.0111320709 2.0369176602 1.1760151714
294 1 121.0111320709 0.0 4.7040606128
295 1 122.6802535582 0.0 0.0
296 1 122.6802535582 2.0369176602 3.5280454415
297 1 124.3493715611 0.0 2.3520302701
298 1 124.3493715611 2.0369176602 5.8800757116
299 1 123.5148125642 2.0369176602 1.1760151714
300 1 123.5148125642 0.0 4.7040606128
301 1 125.1839305671 0.0 0.0
302 1 125.1839305671 2.0369176602 3.5280454415
303 1 126.853048579 0.0 2.3520302701
304 1 126.853048579 2.0369176602 5.8800757116
305 1 126.018489573 2.0369176602 1.1760151714
306 1 126.018489573 0.0 4.7040606128
307 1 127.6876075759 0.0 0.0
308 1 127.6876075759 2.0369176602 3.5280454415
309 1 129.3567290632 0.0 2.3520302701
310 1 129.3567290632 2.0369176602 5.8800757116
311 1 128.5221700663 2.0369176602 1.1760151714
312 1 128.5221700663 0.0 4.7040606128
313 1 130.1912880692 0.0 0.0
314 1 130.1912880692 2.0369176602 3.5280454415
315 1 131.8604060812 0.0 2.3520302701
316 1 131.8604060812 2.0369176602 5.8800757116
317 1 131.0258470752 2.0369176602 1.1760151714
318 1 131.0258470752 0.0 4.7040606128
319 1 132.6949650781 0.0 0.0
320 1 132.6949650781 2.0369176602 3.5280454415
321 1 134.3640865654 0.0 2.3520302701
322 1 134.3640865654 2.0369176602 5.8800757116
323 1 133.5295275685 2.0369176602 1.1760151714
324 1 133.5295275685 0.0 4.7040606128
325 1 135.1986455714 0.0 0.0
326 1 135.1986455714 2.0369176602 3.5280454415
327 1 136.8677635743 0.0 2.3520302701
328 1 136.8677635743 2.0369176602 5.8800757116
329 1 136.0332045774 2.0369176602 1.1760151714
330 1 136.0332045774 0.0 4.7040606128
331 1 137.7023225803 0.0 0.0
332 1 137.7023225803 2.0369176602 3.5280454415
333 1 139.3714440676 0.0 2.3520302701
334 1 139.3714440676 2.0369176602 5.8800757116
335 1 138.5368815862 2.0369176602 1.1760151714
336 1 138.5368815862 0.0 4.7040606128
337 1 140.2060030735 0.0 0.0
338 1 140.2060030735 2.0369176602 3.5280454415
339 1 141.8751210764 0.0 2.3520302701
340 1 141.8751210764 2.0369176602 5.8800757116
341 1 141.0405620795 2.0369176602 1.1760151714
342 1 141.0405620795 0.0 4.7040606128
343 1 142.7096800824 0.0 0.0
344 1 142.7096800824 2.0369176602 3.5280454415
345 1 144.3788015697 0.0 2.3520302701
346 1 144.3788015697 2.0369176602 5.8800757116
347 1 143.5442390884 2.0369176602 1.1760151714
348 1 143.5442390884 0.0 4.7040606128
349 1 145.2133605757 0.0 0.0
350 1 145.2133605757 2.0369176602 3.5280454415
351 1 146.8824785786 0.0 2.3520302701
352 1 146.8824785786 2.0369176602 5.8800757116
353 1 146.0479195817 2.0369176602 1.1760151714
354 1 146.0479195817 0.0 4.7040606128
355 1 147.7170375846 0.0 0.0
356 1 147.7170375846 2.0369176602 3.5280454415
357 1 149.3861555875 0.0 2.3520302701
358 1 149.3861555875 2.0369176602 5.8800757116
359 1 148.5515965906 2.0369176602 1.1760151714
360 1 148.5515965906 0.0 4.7040606128
361 1 150.2207180779 0.0 0.0
362 1 150.2207180779 2.0369176602 3.5280454415
363 1 151.8898360808 0.0 2.3520302701
364 1 151.8898360808 2.0369176602 5.8800757116
365 1 151.0552770748 2.0369176602 1.1760151714
366 1 151.0552770748 0.0 4.7040606128
367 1 152.7243950867 0.0 0.0
368 1 152.7243950867 2.0369176602 3.5280454415
369 1 154.3935130896 0.0 2.3520302701
370 1 154.3935130896 2.0369176602 5.8800757116
371 1 153.5589540927 2.0369176602 1.1760151714
372 1 153.5589540927 0.0 4.7040606128
373 1 155.22807558 0.0 0.0
374 1 155.22807558 2.0369176602 3.5280454415
375 1 156.8971935829 0.0 2.3520302701
376 1 156.8971935829 2.0369176602 5.8800757116
377 1 156.0626345769 2.0369176602 1.1760151714
378 1 156.0626345769 0.0 4.7040606128
379 1 157.7317525889 0.0 0.0
380 1 157.7317525889 2.0369176602 3.5280454415
381 1 159.4008705918 0.0 2.3520302701
382 1 159.4008705918 2.0369176602 5.8800757116
383 1 158.5663115858 2.0369176602 1.1760151714
384 1 158.5663115858 0.0 4.7040606128
385 1 160.2354295978 0.0 0.0
386 1 160.2354295978 2.0369176602 3.5280454415
387 1 161.9045510851 0.0 2.3520302701
388 1 161.9045510851 2.0369176602 5.8800757116
389 1 161.0699920791 2.0369176602 1.1760151714
390 1 161.0699920791 0.0 4.7040606128
391 1 162.7391100911 0.0 0.0
392 1 162.7391100911 2.0369176602 3.5280454415
393 1 164.408228094 0.0 2.3520302701
394 1 164.408228094 2.0369176602 5.8800757116
395 1 163.573669088 2.0369176602 1.1760151714
396 1 163.573669088 0.0 4.7040606128
397 1 165.2427870999 0.0 0.0
398 1 165.2427870999 2.0369176602 3.5280454415
399 1 166.9119085872 0.0 2.3520302701
400 1 166.9119085872 2.0369176602 5.8800757116
401 1 166.0773495813 2.0369176602 1.1760151714
402 1 166.0773495813 0.0 4.7040606128
403 1 167.7464675932 0.0 0.0
404 1 167.7464675932 2.0369176602 3.5280454415
405 1 169.4155855961 0.0 2.3520302701
406 1 169.4155855961 2.0369176602 5.8800757116
407 1 168.5810265901 2.0369176602 1.1760151714
408 1 168.5810265901 0.0 4.7040606128
409 1 170.2501446021 0.0 0.0
410 1 170.2501446021 2.0369176602 3.5280454415
411 1 171.9192660894 0.0 2.3520302701
412 1 171.9192660894 2.0369176602 5.8800757116
413 1 171.084703599 2.0369176602 1.1760151714
414 1 171.084703599 0.0 4.7040606128
415 1 172.7538250863 0.0 0.0
416 1 172.7538250863 2.0369176602 3.5280454415
417 1 174.4229430983 0.0 2.3520302701
418 1 174.4229430983 2.0369176602 5.8800757116
419 1 173.5883840923 2.0369176602 1.1760151714
420 1 173.5883840923 0.0 4.7040606128
421 1 175.2575021043 0.0 0.0
422 1 175.2575021043 2.0369176602 3.5280454415
423 1 176.9266235916 0.0 2.3520302701
424 1 176.9266235916 2.0369176602 5.8800757116
425 1 176.0920611012 2.0369176602 1.1760151714
426 1 176.0920611012 0.0 4.7040606128
427 1 177.7611825885 0.0 0.0
428 1 177.7611825885 2.0369176602 3.5280454415
429 1 179.4303006004 0.0 2.3520302701
430 1 179.4303006004 2.0369176602 5.8800757116
431 1 178.5957415945 2.0369176602 1.1760151714
432 1 178.5957415945 0.0 4.7040606128
433 1 180.2648595973 0.0 0.0
434 1 180.2648595973 2.0369176602 3.5280454415
435 1 181.9339776093 0.0 2.3520302701
436 1 181.9339776093 2.0369176602 5.8800757116
437 1 181.0994186033 2.0369176602 1.1760151714
438 1 181.0994186033 0.0 4.7040606128
439 1 182.7685400906 0.0 0.0
440 1 182.7685400906 2.0369176602 3.5280454415
441 1 184.4376581026 0.0 2.3520302701
442 1 184.4376581026 2.0369176602 5.8800757116
443 1 183.6030990966 2.0369176602 1.1760151714
444 1 183.6030990966 0.0 4.7040606128
445 1 185.2722170995 0.0 0.0
446 1 185.2722170995 2.0369176602 3.5280454415
447 1 186.9413351115 0.0 2.3520302701
448 1 186.9413351115 2.0369176602 5.8800757116
449 1 186.1067761055 2.0369176602 1.1760151714
450 1 186.1067761055 0.0 4.7040606128
451 1 187.7758975928 0.0 0.0
452 1 187.7758975928 2.0369176602 3.5280454415
453 1 189.4450156048 0.0 2.3520302701
454 1 189.4450156048 2.0369176602 5.8800757116
455 1 188.6104565988 2.0369176602 1.1760151714
456 1 188.6104565988 0.0 4.7040606128
457 1 190.2795746017 0.0 0.0
458 1 190.2795746017 2.0369176602 3.5280454415
459 1 191.9486926136 0.0 2.3520302701
460 1 191.9486926136 2.0369176602 5.8800757116
461 1 191.1141336077 2.0369176602 1.1760151714
462 1 191.1141336077 0.0 4.7040606128
463 1 192.7832516105 0.0 0.0
464 1 192.7832516105 2.0369176602 3.5280454415
465 1 194.4523730979 0.0 2.3520302701
466 1 194.4523730979 2.0369176602 5.8800757116
467 1 193.6178141009 2.0369176602 1.1760151714
468 1 193.6178141009 0.0 4.7040606128
469 1 195.2869321038 0.0 0.0
470 1 195.2869321038 2.0369176602 3.5280454415
471 1 196.9560501158 0.0 2.3520302701
472 1 196.9560501158 2.0369176602 5.8800757116
473 1 196.1214911098 2.0369176602 1.1760151714
474 1 196.1214911098 0.0 4.7040606128
475 1 197.7906091127 0.0 0.0
476 1 197.7906091127 2.0369176602 3.5280454415
477 1 199.4597306 0.0 2.3520302701
478 1 199.4597306 2.0369176602 5.8800757116
479 1 198.6251716031 2.0369176602 1.1760151714
480 1 198.6251716031 0.0 4.7040606128
481 1 200.294289606 0.0 0.0
482 1 200.294289606 2.0369176602 3.5280454415
483 1 201.9634076089 0.0 2.3520302701
484 1 201.9634076089 2.0369176602 5.8800757116
485 1 201.128848612 2.0369176602 1.1760151714
486 1 201.128848612 0.0 4.7040606128
487 1 202.7979666149 0.0 0.0
488 1 202.7979666149 2.0369176602 3.5280454415
489 1 204.4670881022 0.0 2.3520302701
490 1 204.4670881022 2.0369176602 5.8800757116
491 1 203.6325256208 2.0369176602 1.1760151714
492 1 203.6325256208 0.0 4.7040606128
493 1 205.3016471082 0.0 0.0
494 1 205.3016471082 2.0369176602 3.5280454415
495 1 206.970765111 0.0 2.3520302701
496 1 206.970765111 2.0369176602 5.8800757116
497 1 206.1362061141 2.0369176602 1.1760151714
498 1 206.1362061141 0.0 4.7040606128
499 1 207.805324117 0.0 0.0
500 1 207.805324117 2.0369176602 3.5280454415
501 1 209.4744456043 0.0 2.3520302701
502 1 209.4744456043 2.0369176602 5.8800757116
503 1 208.639883123 2.0369176602 1.1760151714
504 1 208.639883123 0.0 4.7040606128
505 1 210.3090046103 0.0 0.0
506 1 210.3090046103 2.0369176602 3.5280454415
507 1 211.9781226132 0.0 2.3520302701
508 1 211.9781226132 2.0369176602 5.8800757116
509 1 211.1435636163 2.0369176602 1.1760151714
510 1 211.1435636163 0.0 4.7040606128
511 1 212.8126816192 0.0 0.0
512 1 212.8126816192 2.0369176602 3.5280454415
513 1 214.4817996221 0.0 2.3520302701
514 1 214.4817996221 2.0369176602 5.8800757116
515 1 213.6472406252 2.0369176602 1.1760151714
516 1 213.6472406252 0.0 4.7040606128
517 1 215.3163621125 0.0 0.0
518 1 215.3163621125 2.0369176602 3.5280454415
519 1 216.9854801154 0.0 2.3520302701
520 1 216.9854801154 2.0369176602 5.8800757116
521 1 216.1509211094 2.0369176602 1.1760151714
522 1 216.1509211094 0.0 4.7040606128
523 1 217.8200391214 0.0 0.0
524 1 217.8200391214 2.0369176602 3.5280454415
525 1 219.4891571242 0.0 2.3520302701
526 1 219.4891571242 2.0369176602 5.8800757116
527 1 218.6545981273 2.0369176602 1.1760151714
528 1 218.6545981273 0.0 4.7040606128
529 1 220.3237196146 0.0 0.0
530 1 220.3237196146 2.0369176602 3.5280454415
531 1 221.9928376175 0.0 2.3520302701
532 1 221.9928376175 2.0369176602 5.8800757116
533 1 221.1582786116 2.0369176602 1.1760151714
534 1 221.1582786116 0.0 4.7040606128
535 1 222.8273966235 0.0 0.0
536 1 222.8273966235 2.0369176602 3.5280454415
537 1 224.4965146264 0.0 2.3520302701
538 1 224.4965146264 2.0369176602 5.8800757116
539 1 223.6619556295 2.0369176602 1.1760151714
540 1 223.6619556295 0.0 4.7040606128
541 1 225.3310736324 0.0 0.0
542 1 225.3310736324 2.0369176602 3.5280454415
543 1 227.0001951197 0.0 2.3520302701
544 1 227.0001951197 2.0369176602 5.8800757116
545 1 226.1656361137 2.0369176602 1.1760151714
546 1 226.1656361137 0.0 4.7040606128
547 1 227.8347541257 0.0 0.0
548 1 227.8347541257 2.0369176602 3.5280454415
549 1 229.5038721286 0.0 2.3520302701
550 1 229.5038721286 2.0369176602 5.8800757116
551 1 228.6693131226 2.0369176602 1.1760151714
552 1 228.6693131226 0.0 4.7040606128
553 1 230.3384311345 0.0 0.0
554 1 230.3384311345 2.0369176602 3.5280454415
555 1 232.0075526219 0.0 2.3520302701
556 1 232.0075526219 2.0369176602 5.8800757116
557 1 231.1729936159 2.0369176602 1.1760151714
558 1 231.1729936159 0.0 4.7040606128
559 1 232.8421116278 0.0 0.0
560 1 232.8421116278 2.0369176602 3.5280454415
561 1 234.5112296307 0.0 2.3520302701
562 1 234.5112296307 2.0369176602 5.8800757116
563 1 233.6766706247 2.0369176602 1.1760151714
564 1 233.6766706247 0.0 4.7040606128
565 1 235.3457886367 0.0 0.0
566 1 235.3457886367 2.0369176602 3.5280454415
567 1 237.014910124 0.0 2.3520302701
568 1 237.014910124 2.0369176602 5.8800757116
569 1 236.1803476336 2.0369176602 1.1760151714
570 1 236.1803476336 0.0 4.7040606128
571 1 237.8494691209 0.0 0.0
572 1 237.8494691209 2.0369176602 3.5280454415
573 1 239.5185871329 0.0 2.3520302701
574 1 239.5185871329 2.0369176602 5.8800757116
575 1 238.6840281269 2.0369176602 1.1760151714
576 1 238.6840281269 0.0 4.7040606128
577 1 240.3531461389 0.0 0.0
578 1 240.3531461389 2.0369176602 3.5280454415
579 1 242.0222676262 0.0 2.3520302701
580 1 242.0222676262 2.0369176602 5.8800757116
581 1 241.1877051358 2.0369176602 1.1760151714
582 1 241.1877051358 0.0 4.7040606128
583 1 242.8568266231 0.0 0.0
584 1 242.8568266231 2.0369176602 3.5280454415
585 1 244.5259446351 0.0 2.3520302701
586 1 244.5259446351 2.0369176602 5.8800757116
587 1 243.6913856291 2.0369176602 1.1760151714
588 1 243.6913856291 0.0 4.7040606128
589 1 245.360503641 0.0 0.0
590 1 245.360503641 2.0369176602 3.5280454415
591 1 247.0296216439 0.0 2.3520302701
592 1 247.0296216439 2.0369176602 5.8800757116
593 1 246.1950626379 2.0369176602 1.1760151714
594 1 246.1950626379 0.0 4.7040606128
595 1 247.8641841253 0.0 0.0
596 1 247.8641841253 2.0369176602 3.5280454415
597 1 249.5333021372 0.0 2.3520302701
598 1 249.5333021372 2.0369176602 5.8800757116
599 1 248.6987431312 2.0369176602 1.1760151714
600 1 248.6987431312 0.0 4.7040606128
601 1 250.3678611341 0.0 0.0
602 1 250.3678611341 2.0369176602 3.5280454415
603 1 252.0369791461 0.0 2.3520302701
604 1 252.0369791461 2.0369176602 5.8800757116
605 1 251.2024201401 2.0369176602 1.1760151714
606 1 251.2024201401 0.0 4.7040606128
607 1 252.8715416274 0.0 0.0
608 1 252.8715416274 2.0369176602 3.5280454415
609 1 254.5406596394 0.0 2.3520302701
610 1 254.5406596394 2.0369176602 5.8800757116
611 1 253.7061006334 2.0369176602 1.1760151714
612 1 253.7061006334 0.0 4.7040606128
613 1 255.3752186363 0.0 0.0
614 1 255.3752186363 2.0369176602 3.5280454415
615 1 257.0443366482 0.0 2.3520302701
616 1 257.0443366482 2.0369176602 5.8800757116
617 1 256.2097776423 2.0369176602 1.1760151714
618 1 256.2097776423 0.0 4.7040606128
619 1 257.8788956452 0.0 0.0
620 1 257.8788956452 2.0369176602 3.5280454415
621 1 259.5480171325 0.0 2.3520302701
622 1 259.5480171325 2.0369176602 5.8800757116
623 1 258.7134581356 2.0369176602 1.1760151714
624 1 258.7134581356 0.0 4.7040606128
625 1 260.3825761384 0.0 0.0
626 1 260.3825761384 2.0369176602 3.5280454415
627 1 262.0516941504 0.0 2.3520302701
628 1 262.0516941504 2.0369176602 5.8800757116
629 1 261.2171351444 2.0369176602 1.1760151714
630 1 261.2171351444 0.0 4.7040606128
631 1 262.8862531473 0.0 0.0
632 1 262.8862531473 2.0369176602 3.5280454415
633 1 264.5553746346 0.0 2.3520302701
634 1 264.5553746346 2.0369176602 5.8800757116
635 1 263.7208121533 2.0369176602 1.1760151714
636 1 263.7208121533 0.0 4.7040606128
637 1 265.3899336406 0.0 0.0
638 1 265.3899336406 2.0369176602 3.5280454415
639 1 267.0590516526 0.0 2.3520302701
640 1 267.0590516526 2.0369176602 5.8800757116
641 1 266.2244926466 2.0369176602 1.1760151714
642 1 266.2244926466 0.0 4.7040606128
643 1 267.8936106495 0.0 0.0
644 1 267.8936106495 2.0369176602 3.5280454415
645 1 269.5627321368 0.0 2.3520302701
646 1 269.5627321368 2.0369176602 5.8800757116
647 1 268.7281696555 2.0369176602 1.1760151714
648 1 268.7281696555 0.0 4.7040606128
649 1 270.3972911428 0.0 0.0
650 1 270.3972911428 2.0369176602 3.5280454415
651 1 272.0664091457 0.0 2.3520302701
652 1 272.0664091457 2.0369176602 5.8800757116
653 1 271.2318501488 2.0369176602 1.1760151714
654 1 271.2318501488 0.0 4.7040606128
655 1 272.9009681516 0.0 0.0
656 1 272.9009681516 2.0369176602 3.5280454415
657 1 274.5700861636 0.0 2.3520302701
658 1 274.5700861636 2.0369176602 5.8800757116
659 1 273.7355271576 2.0369176602 1.1760151714
660 1 273.7355271576 0.0 4.7040606128
661 1 275.4046486449 0.0 0.0
662 1 275.4046486449 2.0369176602 3.5280454415
663 1 277.0737666478 0.0 2.3520302701
664 1 277.0737666478 2.0369176602 5.8800757116
665 1 276.2392076509 2.0369176602 1.1760151714
666 1 276.2392076509 0.0 4.7040606128
667 1 277.9083256538 0.0 0.0
668 1 277.9083256538 2.0369176602 3.5280454415
669 1 279.5774436658 0.0 2.3520302701
670 1 279.5774436658 2.0369176602 5.8800757116
671 1 278.7428846598 2.0369176602 1.1760151714
672 1 278.7428846598 0.0 4.7040606128
673 1 280.4120061471 0.0 0.0
674 1 280.4120061471 2.0369176602 3.5280454415
675 1 282.08112415 0.0 2.3520302701
676 1 282.08112415 2.0369176602 5.8800757116
677 1 281.246565144 2.0369176602 1.1760151714
678 1 281.246565144 0.0 4.7040606128
679 1 282.915683156 0.0 0.0
680 1 282.915683156 2.0369176602 3.5280454415
681 1 284.5848011589 0.0 2.3520302701
682 1 284.5848011589 2.0369176602 5.8800757116
683 1 283.7502421619 2.0369176602 1.1760151714
684 1 283.7502421619 0.0 4.7040606128
685 1 285.4193601648 0.0 0.0
686 1 285.4193601648 2.0369176602 3.5280454415
687 1 287.0884816521 0.0 2.3520302701
688 1 287.0884816521 2.0369176602 5.8800757116
689 1 286.2539226462 2.0369176602 1.1760151714
690 1 286.2539226462 0.0 4.7040606128
691 1 287.9230406581 0.0 0.0
692 1 287.9230406581 2.0369176602 3.5280454415
693 1 289.592158661 0.0 2.3520302701
694 1 289.592158661 2.0369176602 5.8800757116
695 1 288.7575996641 2.0369176602 1.1760151714
696 1 288.7575996641 0.0 4.7040606128
697 1 290.426717667 0.0 0.0
698 1 290.426717667 2.0369176602 3.5280454415
699 1 292.0958391543 0.0 2.3520302701
700 1 292.0958391543 2.0369176602 5.8800757116
701 1 291.2612801483 2.0369176602 1.1760151714
702 1 291.2612801483 0.0 4.7040606128
703 1 292.9303981603 0.0 0.0
704 1 292.9303981603 2.0369176602 3.5280454415
705 1 294.5995161632 0.0 2.3520302701
706 1 294.5995161632 2.0369176602 5.8800757116
707 1 293.7649571572 2.0369176602 1.1760151714
708 1 293.7649571572 0.0 4.7040606128
709 1 295.4340751692 0.0 0.0
710 1 295.4340751692 2.0369176602 3.5280454415
711 1 297.1031966565 0.0 2.3520302701
712 1 297.1031966565 2.0369176602 5.8800757116
713 1 296.2686341751 2.0369176602 1.1760151714
714 1 296.2686341751 0.0 4.7040606128
715 1 297.9377556625 0.0 0.0
716 1 297.9377556625 2.0369176602 3.5280454415
717 1 299.6068736653 0.0 2.3520302701
718 1 299.6068736653 2.0369176602 5.8800757116
719 1 298.7723146594 2.0369176602 1.1760151714
720 1 298.7723146594 0.0 4.7040606128
721 1 300.4414326713 0.0 0.0
722 1 300.4414326713 2.0369176602 3.5280454415
723 1 302.1105541586 0.0 2.3520302701
724 1 302.1105541586 2.0369176602 5.8800757116
725 1 301.2759916773 2.0369176602 1.1760151714
726 1 301.2759916773 0.0 4.7040606128
727 1 302.9451131646 0.0 0.0
728 1 302.9451131646 2.0369176602 3.5280454415
729 1 304.6142311675 0.0 2.3520302701
730 1 304.6142311675 2.0369176602 5.8800757116
731 1 303.7796721615 2.0369176602 1.1760151714
732 1 303.7796721615 0.0 4.7040606128
733 1 305.4487901735 0.0 0.0
734 1 305.4487901735 2.0369176602 3.5280454415
735 1 307.1179081764 0.0 2.3520302701
736 1 307.1179081764 2.0369176602 5.8800757116
737 1 306.2833491704 2.0369176602 1.1760151714
738 1 306.2833491704 0.0 4.7040606128