# LAMMPS data file written by OVITO Basic 3.3.0
76608 atoms
1 atom types
0.0 354.7067654739 xlo xhi
0.0 344.9074191664 ylo yhi
0.0 7.4840685234 zlo zhi
0.0 0.0263184023 0.0 xy xz yz

Masses

1 1.008  # H

Atoms  # atomic

1 1 -0.003309348 0.0 -0.9410668538
2 1 2.6636248932 3.0795300367 -0.9510142254
3 1 0.4470197257 2.3096483918 0.7183190041
4 1 6.6640450562 2.3096483918 -0.9595835081
5 1 4.4474432008 1.5397667469 0.7096862759
6 1 10.6644691393 1.5397667469 -0.9680473235
7 1 8.4478635091 0.7698816449 0.7011575359
8 1 14.6648900465 0.7698816449 -0.9764049094
9 1 12.4482877283 0.0 0.6927335554
10 1 1.3301354414 6.9289451754 -0.9523918334
11 1 5.3305555319 6.1590600733 -0.9609808884
12 1 3.1139538217 5.3891784284 0.708330509
13 1 9.3309795515 5.3891784284 -0.9694616994
14 1 7.1143776144 4.6192967836 0.699784111
15 1 13.3314004042 4.6192967836 -0.9778332774
16 1 11.1147982402 3.8494116815 0.6913453852
17 1 17.331825195 3.8494116815 -0.9860948058
18 1 15.115222777 3.0795300367 0.6830151393
19 1 3.997069247 10.008475212 -0.9624662503
20 1 1.7804641431 9.23859011 0.7068889111
21 1 7.997489637 9.23859011 -0.970967859
22 1 5.7808878541 8.4687084651 0.6983211437
23 1 11.9979139832 8.4687084651 -0.9793573219
24 1 9.7813084074 7.6988268202 0.6898638525
25 1 15.9983351716 7.6988268202 -0.9876335956
26 1 13.7817328988 6.9289451754 0.6815180628
27 1 17.7821542506 6.1590600733 0.6732847274
28 1 16.4486639731 10.008475212 0.6716748156
29 1 2.2220651116 0.7698816449 -0.1157043991
30 1 6.2224887319 0.0 -0.124296884
31 1 0.8885794165 4.6192967836 -0.1170188973
32 1 4.8889994344 3.8494116815 -0.1256296119
33 1 8.8894233723 3.0795300367 -0.1341342513
34 1 12.8898441343 2.3096483918 -0.142531899
35 1 16.8902688162 1.5397667469 -0.1508218563
36 1 3.5555098284 7.6988268202 -0.1270497317
37 1 7.5559336937 6.9289451754 -0.1355735626
38 1 11.5563543922 6.1590600733 -0.1439874891
39 1 15.5567790378 5.3891784284 -0.1522906218
40 1 10.2228678804 10.008475212 -0.1455371858
41 1 14.2232889237 9.23859011 -0.1538574684
42 1 18.2237139051 8.4687084651 -0.1620628831
43 1 18.6653148736 0.0 -0.9846556397
44 1 21.332250376 3.0795300367 -0.9942456403
45 1 19.1156441651 2.3096483918 0.6747940992
46 1 25.3326723993 2.3096483918 -1.0022852727
47 1 23.1160694913 1.5397667469 0.6666828002
48 1 29.3330983607 1.5397667469 -1.0102133945
49 1 27.1164916416 0.7698816449 0.6586816145
50 1 33.3335211734 0.7698816449 -1.0180298969
51 1 31.1169177391 0.0 0.6507906961
52 1 19.9987603073 6.9289451754 -0.9957958179
53 1 23.9991823033 6.1590600733 -1.003843254
54 1 21.7825795314 5.3891784284 0.6651645541
55 1 27.9996082556 5.3891784284 -1.0117754046
56 1 25.7830016726 4.6192967836 0.6571581507
57 1 32.0000310683 4.6192967836 -1.0195919161
58 1 29.783427761 3.8494116815 0.6492658803
59 1 36.0004578191 3.8494116815 -1.0272926793
60 1 33.7838542578 3.0795300367 0.6414879516
61 1 22.6656918353 10.008475212 -1.0055085083
62 1 20.4490892086 9.23859011 0.6635416573
63 1 26.6661177604 9.23859011 -1.0134489072
64 1 24.4495148614 8.4687084651 0.6555258896
65 1 30.6665440938 8.4687084651 -1.0212696744
66 1 28.4499373928 7.6988268202 0.6476281203
67 1 34.6669673148 7.6988268202 -1.0289704376
68 1 32.4503638714 6.9289451754 0.639848767
69 1 36.4507872286 6.1590600733 0.6321880383
70 1 35.1172964339 10.008475212 0.6304302018
71 1 20.8906903495 0.7698816449 -0.1590035061
72 1 24.8911158027 0.0 -0.1670764583
73 1 19.5572005348 4.6192967836 -0.1604821533
74 1 23.5576259608 3.8494116815 -0.1685614482
75 1 27.5580517861 3.0795300367 -0.1765280801
76 1 31.5584744717 2.3096483918 -0.1843817769
77 1 35.5589010955 1.5397667469 -0.1921225475
78 1 22.2241357469 7.6988268202 -0.1701525768
79 1 26.224561554 6.9289451754 -0.1781259054
80 1 30.2249842306 6.1590600733 -0.1859823607
81 1 34.2254108453 5.3891784284 -0.1937217066
82 1 28.891493572 10.008475212 -0.1876972407
83 1 32.8919201958 9.23859011 -0.1954394904
84 1 36.892347237 8.4687084651 -0.2030601846
85 1 37.3339479242 0.0 -1.0257349158
86 1 40.0008814485 3.0795300367 -1.0348778124
87 1 37.7842775968 2.3096483918 0.6338243102
88 1 44.001309025 2.3096483918 -1.0423477055
89 1 41.784704892 1.5397667469 0.6262746655
90 1 48.0017369918 1.5397667469 -1.0497029938
91 1 45.7851290386 0.7698816449 0.6188385096
92 1 52.002161828 0.7698816449 -1.0569445756
93 1 49.7855571233 0.0 0.6115150258
94 1 38.6673945012 6.9289451754 -1.0365510882
95 1 42.667818548 6.1590600733 -1.044011753
96 1 40.4512145511 5.3891784284 0.6246458797
97 1 46.6682465782 5.3891784284 -1.0513528495
98 1 44.4516387339 4.6192967836 0.6172219919
99 1 50.6686714779 4.6192967836 -1.0585750583
100 1 48.4520668821 3.8494116815 0.609915794
101 1 54.669100343 3.8494116815 -1.0656793683
102 1 52.4524918998 3.0795300367 0.6027264241
103 1 41.3343276353 10.008475212 -1.0458048783
104 1 39.1177237564 9.23859011 0.6228911284
105 1 45.3347556928 9.23859011 -1.0531362112
106 1 43.1181479755 8.4687084651 0.615475144
107 1 49.335180647 8.4687084651 -1.0603433843
108 1 47.1185761782 7.6988268202 0.6081819402
109 1 53.3356095755 7.6988268202 -1.0674271599
110 1 51.1190047983 6.9289451754 0.6010108726
111 1 55.1194302969 6.1590600733 0.5939610429
112 1 53.78593923 10.008475212 0.5921248341
113 1 39.5593245525 0.7698816449 -0.1997505372
114 1 43.5597519748 0.0 -0.2072662177
115 1 38.2258343385 4.6192967836 -0.2013438889
116 1 42.2262617971 3.8494116815 -0.2088491253
117 1 46.226686098 3.0795300367 -0.2162378695
118 1 50.2271143641 2.3096483918 -0.2235108928
119 1 54.2275430387 1.5397667469 -0.2306692477
120 1 40.8927711567 7.6988268202 -0.2105592597
121 1 44.8931990599 6.9289451754 -0.2179369608
122 1 48.8936238417 6.1590600733 -0.2251937779
123 1 52.8940525888 5.3891784284 -0.2323305457
124 1 47.5601328292 10.008475212 -0.2270134175
125 1 51.5605616217 9.23859011 -0.2341329991
126 1 55.560987329 8.4687084651 -0.2411279491
127 1 56.0025906023 0.0 -1.0640737122
128 1 58.6695260594 3.0795300367 -1.0726671136
129 1 56.4529208738 2.3096483918 0.5956526844
130 1 62.669955732 2.3096483918 -1.0795399546
131 1 60.4533502289 1.5397667469 0.5886930867
132 1 66.670382256 1.5397667469 -1.0862999058
133 1 64.4537764534 0.7698816449 0.58184578
134 1 70.670812709 0.7698816449 -1.0929493536
135 1 68.454206607 0.0 0.575108532
136 1 57.3360389397 6.9289451754 -1.0743886087
137 1 61.3364651824 6.1590600733 -1.0812291371
138 1 59.119859779 5.3891784284 0.5870311263
139 1 65.3368953813 5.3891784284 -1.0879505691
140 1 63.1202861215 4.6192967836 0.5802195168
141 1 69.3373224588 4.6192967836 -1.0945550914
142 1 67.1207164112 3.8494116815 0.5735242179
143 1 73.3377534744 3.8494116815 -1.1010452721
144 1 71.1211435612 3.0795300367 0.5669428434
145 1 60.0029740973 10.008475212 -1.0830707177
146 1 57.7863687937 9.23859011 0.5852202613
147 1 64.0034044142 9.23859011 -1.089757868
148 1 61.7867952542 8.4687084651 0.5784401658
149 1 68.0038316278 8.4687084651 -1.0963214756
150 1 65.7872256709 7.6988268202 0.5717827601
151 1 72.0042628249 7.6988268202 -1.102763927
152 1 69.7876529843 6.9289451754 0.5652459026
153 1 73.788084254 6.1590600733 0.5588269983
154 1 72.4545932597 10.008475212 0.5570134928
155 1 58.2279685645 0.7698816449 -0.2377142591
156 1 62.2283980194 0.0 -0.2446476691
157 1 56.8944781963 4.6192967836 -0.2393483713
158 1 60.8949077782 3.8494116815 -0.2462487429
159 1 64.8953342114 3.0795300367 -0.2530334752
160 1 68.8957645919 2.3096483918 -0.2597047914
161 1 72.8961918145 1.5397667469 -0.2662652413
162 1 59.5614170017 7.6988268202 -0.2479994835
163 1 63.5618435619 6.9289451754 -0.2547491901
164 1 67.5622740875 6.1590600733 -0.2613790381
165 1 71.5627050306 5.3891784284 -0.2678914229
166 1 66.2287830297 10.008475212 -0.2632135046
167 1 70.229214127 9.23859011 -0.2696818532
168 1 74.2296420937 8.4687084651 -0.2760284739
169 1 74.6712435522 0.0 -1.0994910838
170 1 77.3381813413 3.0795300367 -1.1074241056
171 1 75.1215746585 2.3096483918 0.5604725983
172 1 81.3386131282 2.3096483918 -1.1136950399
173 1 79.1220025799 1.5397667469 0.5541102887
174 1 85.3390417392 1.5397667469 -1.1198618953
175 1 83.1224344121 0.7698816449 0.547852312
176 1 89.339474252 0.7698816449 -1.1259289727
177 1 87.1228665983 0.0 0.5416946305
178 1 76.0046908733 6.9289451754 -1.109088026
179 1 80.005122878 6.1590600733 -1.1152970029
180 1 77.7885159229 5.3891784284 0.5525230164
181 1 84.0055552819 5.3891784284 -1.1213945873
182 1 81.7889444432 4.6192967836 0.546330527
183 1 88.0059845099 4.6192967836 -1.1273849258
184 1 85.7893768925 3.8494116815 0.54024561
185 1 92.0064176489 3.8494116815 -1.1332726735
186 1 89.7898061478 3.0795300367 0.5342639009
187 1 78.6716320198 10.008475212 -1.1170742941
188 1 76.4550251283 9.23859011 0.5507641002
189 1 82.6720646415 9.23859011 -1.1231059829
190 1 80.4554538663 8.4687084651 0.5446336316
191 1 86.6724941327 8.4687084651 -1.1290226314
192 1 84.4558865515 7.6988268202 0.5386183214
193 1 90.672927562 7.6988268202 -1.1348287855
194 1 88.4563160881 6.9289451754 0.5327139501
195 1 92.4567495355 6.1590600733 0.526915772
196 1 91.1232591129 10.008475212 0.5252621233
197 1 76.8966229753 0.7698816449 -0.2727178192
198 1 80.8970544809 0.0 -0.2790659008
199 1 75.563132834 4.6192967836 -0.2742891303
200 1 79.5635645664 3.8494116815 -0.2805753906
201 1 83.563993132 3.0795300367 -0.2867538425
202 1 87.5644256176 2.3096483918 -0.2928286057
203 1 91.564854891 1.5397667469 -0.2988042171
204 1 78.230074044 7.6988268202 -0.2822564337
205 1 82.2305028455 6.9289451754 -0.2883691898
206 1 86.2309355761 6.1590600733 -0.2943707075
207 1 90.2313651399 5.3891784284 -0.3002654603
208 1 84.8974448994 10.008475212 -0.2960951788
209 1 88.8978782833 9.23859011 -0.301912004
210 1 92.8983085185 8.4687084651 -0.3076188612
211 1 93.3399035345 0.0 -1.1319009727
212 1 96.0068475847 3.0795300367 -1.1390629209
213 1 93.7902393048 2.3096483918 0.5283805631
214 1 100.0072813769 2.3096483918 -1.1447612667
215 1 97.7906692406 1.5397667469 0.522590352
216 1 104.0077119388 1.5397667469 -1.1503736906
217 1 101.7911030238 0.7698816449 0.5168875327
218 1 108.00814633 0.7698816449 -1.1559066625
219 1 105.7915335494 0.0 0.5112659713
220 1 94.6733578153 6.9289451754 -1.1405294452
221 1 98.6737919524 6.1590600733 -1.1461301727
222 1 96.4571798071 5.3891784284 0.5212185695
223 1 102.6742228864 5.3891784284 -1.1516369751
224 1 100.457613935 4.6192967836 0.515616617
225 1 106.6746576768 4.6192967836 -1.1570563947
226 1 104.4580483988 3.8494116815 0.5101037441
227 1 110.6750927394 3.8494116815 -1.1623954004
228 1 108.4584795959 3.0795300367 0.5046732905
229 1 97.3403018474 10.008475212 -1.1476937436
230 1 95.1236932318 9.23859011 0.519655534
231 1 101.3407366922 9.23859011 -1.1530966485
232 1 99.1241241748 8.4687084651 0.5141525609
233 1 105.3411683158 8.4687084651 -1.1584036955
234 1 103.1245590106 7.6988268202 0.5087469701
235 1 109.3416038139 7.6988268202 -1.1636219442
236 1 107.124990616 6.9289451754 0.5034320831
237 1 111.1254260597 6.1590600733 0.4982006862
238 1 109.7919368076 10.008475212 0.4968797
239 1 95.5652880572 0.7698816449 -0.3046856765
240 1 99.5657179839 0.0 -0.3104783921
241 1 94.2317986145 4.6192967836 -0.3060583664
242 1 98.2322324159 3.8494116815 -0.3117548067
243 1 102.232663005 3.0795300367 -0.3173606701
244 1 106.2330974324 2.3096483918 -0.3228822903
245 1 110.2335285841 1.5397667469 -0.3283264275
246 1 96.8987426465 7.6988268202 -0.3132211222
247 1 100.8991735986 6.9289451754 -0.3187246035
248 1 104.8996084072 6.1590600733 -0.3241357113
249 1 108.9000399763 5.3891784284 -0.3294612784
250 1 103.5661186832 10.008475212 -0.3255887335
251 1 107.5665542086 9.23859011 -0.3307966922
252 1 111.5669865037 8.4687084651 -0.3359179215
253 1 112.0085774272 0.0 -1.1613670422
254 1 114.6755245172 3.0795300367 -1.1676613965
255 1 112.458914604 2.3096483918 0.4993181694
256 1 118.6759600698 2.3096483918 -1.1728622503
257 1 116.4593463093 1.5397667469 0.4940308946
258 1 122.6763922741 1.5397667469 -1.1780061556
259 1 120.4597817712 0.7698816449 0.4888035447
260 1 126.6768281988 0.7698816449 -1.1831016419
261 1 124.4602138575 0.0 0.4836279076
262 1 113.3420360455 6.9289451754 -1.168758926
263 1 117.3424720699 6.1590600733 -1.1738226986
264 1 115.1258582277 5.3891784284 0.4930451208
265 1 121.3429047915 5.3891784284 -1.1788217191
266 1 119.1262941705 4.6192967836 0.4879572476
267 1 125.3433412515 4.6192967836 -1.1837648345
268 1 123.1267267832 3.8494116815 0.4829285914
269 1 129.3437743269 3.8494116815 -1.1886612551
270 1 127.1271631252 3.0795300367 0.4779502688
271 1 116.0089833532 10.008475212 -1.1749893176
272 1 113.7923729863 9.23859011 0.4918557442
273 1 120.0094165919 9.23859011 -1.1798425821
274 1 117.7928058712 8.4687084651 0.4869079284
275 1 124.0098535873 8.4687084651 -1.1846317932
276 1 121.7932425581 7.6988268202 0.4820274327
277 1 128.0102907823 7.6988268202 -1.1893664785
278 1 125.7936758966 6.9289451754 0.4772051287
279 1 129.7941129465 6.1590600733 0.4724314161
280 1 128.4606255545 10.008475212 0.4716425302
281 1 114.2339635197 0.7698816449 -0.3337002502
282 1 118.2343951433 0.0 -0.3390113442
283 1 112.9004753656 4.6192967836 -0.3347086274
284 1 116.900907461 3.8494116815 -0.3398855168
285 1 120.901343304 3.0795300367 -0.345000122
286 1 124.9017793557 2.3096483918 -0.3500609819
287 1 128.9022120137 1.5397667469 -0.3550769436
288 1 115.5674226007 7.6988268202 -0.3409603611
289 1 119.567855413 6.9289451754 -0.3459323955
290 1 123.568291991 6.1590600733 -0.3508428626
291 1 127.5687252116 5.3891784284 -0.3557009545
292 1 122.2348039003 10.008475212 -0.3518322116
293 1 126.2352376654 9.23859011 -0.3565305283
294 1 130.2356751689 8.4687084651 -0.3611782392
295 1 130.6772607116 0.0 -1.1881575564
296 1 133.3442110773 3.0795300367 -1.1935204631
297 1 131.1275996125 2.3096483918 0.4730131059
298 1 137.3446479365 2.3096483918 -1.198352195
299 1 135.1280326516 1.5397667469 0.4681076748
300 1 141.3450813023 1.5397667469 -1.2031663596
301 1 139.1284693203 0.7698816449 0.463224339
302 1 145.3455182342 0.7698816449 -1.2079729656
303 1 143.1289024864 0.0 0.4583533256
304 1 132.0107245837 6.9289451754 -1.194056565
305 1 136.01116206 6.1590600733 -1.1987122519
306 1 133.7945465935 5.3891784284 0.4676964495
307 1 140.0115960519 5.3891784284 -1.2033439835
308 1 137.7949838884 4.6192967836 0.4629900842
309 1 144.0120336643 4.6192967836 -1.207962349
310 1 141.7954176897 3.8494116815 0.4583020212
311 1 148.0124677288 3.8494116815 -1.2125780286
312 1 145.7958550752 3.0795300367 0.4536218253
313 1 134.6776754575 10.008475212 -1.1992775722
314 1 132.4610598096 9.23859011 0.4670810225
315 1 138.6781101118 9.23859011 -1.2037227329
316 1 136.4614977396 8.4687084651 0.4625553572
317 1 142.6785483957 8.4687084651 -1.2081480033
318 1 140.4619322033 7.6988268202 0.4580546726
319 1 146.6789831589 7.6988268202 -1.2125647351
320 1 144.4623702694 6.9289451754 0.4535678984
321 1 148.4628083537 6.1590600733 0.4490839282
322 1 147.1293235479 10.008475212 0.4490327961
323 1 132.9026483467 0.7698816449 -0.3600571445
324 1 136.9030812134 0.0 -0.3650109401
325 1 131.5691621071 4.6192967836 -0.3605162171
326 1 135.5695955909 3.8494116815 -0.3652984503
327 1 139.5700327042 3.0795300367 -0.3700576899
328 1 143.5704662969 2.3096483918 -0.3748040806
329 1 147.5709034646 1.5397667469 -0.3795479126
330 1 134.2361128176 7.6988268202 -0.3657855979
331 1 138.2365470182 6.9289451754 -0.3703631394
332 1 142.2369848212 6.1590600733 -0.3749216345
333 1 146.2374191125 5.3891784284 -0.3794719177
334 1 140.9034990898 10.008475212 -0.3752407404
335 1 144.9039340798 9.23859011 -0.3795921847
336 1 148.9043726269 8.4687084651 -0.3839407252
337 1 149.3459516181 0.0 -1.212782085
338 1 152.012905314 3.0795300367 -1.2172017568
339 1 149.7962889038 2.3096483918 0.4489390071
340 1 156.0133392786 2.3096483918 -1.2218441412
341 1 153.7967262349 1.5397667469 0.444243095
342 1 160.0137766914 1.5397667469 -1.226515744
343 1 157.7971634753 0.7698816449 0.4395237085
344 1 164.0142139681 0.7698816449 -1.2312268641
345 1 161.7975970589 0.0 0.4347706211
346 1 150.6794214518 6.9289451754 -1.2169843162
347 1 154.6798597085 6.1590600733 -1.2214181252
348 1 152.4632428446 5.3891784284 0.4445915917
349 1 158.6802943265 5.3891784284 -1.2258774233
350 1 156.46368082 4.6192967836 0.4400797733
351 1 162.6807323472 4.6192967836 -1.2303733258
352 1 160.4641151476 3.8494116815 0.4355375388
353 1 166.6811666749 3.8494116815 -1.2349166583
354 1 164.4645528599 3.0795300367 0.4309541082
355 1 153.346375928 10.008475212 -1.2211807944
356 1 151.1297587829 9.23859011 0.4447504505
357 1 157.3468113173 9.23859011 -1.2254203016
358 1 155.1301975205 8.4687084651 0.4404532598
359 1 161.3472501366 8.4687084651 -1.2296929198
360 1 159.1306326103 7.6988268202 0.4361294822
361 1 165.3476852446 7.6988268202 -1.2340103275
362 1 163.131071112 6.9289451754 0.4317675302
363 1 167.1315058933 6.1590600733 0.4273561158
364 1 165.7980278839 10.008475212 0.4282245717
365 1 151.5713405961 0.7698816449 -0.3842994483
366 1 155.5717741252 0.0 -0.3890689143
367 1 150.2378569518 4.6192967836 -0.3840249321
368 1 154.2382911796 3.8494116815 -0.3885915939
369 1 158.2387288827 3.0795300367 -0.3931827101
370 1 162.2391629109 2.3096483918 -0.3978089428
371 1 166.2396003146 1.5397667469 -0.4024806998
372 1 152.9048075988 7.6988268202 -0.3882979859
373 1 156.9052460551 6.9289451754 -0.3926755543
374 1 160.9056843843 6.1590600733 -0.3970848545
375 1 164.9061190205 5.3891784284 -0.4015370929
376 1 159.5722016837 10.008475212 -0.3965402956
377 1 163.5726371274 9.23859011 -0.4007645221
378 1 167.5730759376 8.4687084651 -0.4050403617
379 1 168.0146475153 0.0 -1.2359875918
380 1 170.6816043326 3.0795300367 -1.2395179465
381 1 168.4649868608 2.3096483918 0.4263190103
382 1 174.6820382156 2.3096483918 -1.244187308
383 1 172.465424192 1.5397667469 0.4216221273
384 1 178.6824753562 1.5397667469 -1.2489344337
385 1 176.4658577211 0.7698816449 0.416853732
386 1 182.6829086585 0.7698816449 -1.2537684795
387 1 180.4662944987 0.0 0.4120045508
388 1 169.3481237099 6.9289451754 -1.2383838942
389 1 173.3485583824 6.1590600733 -1.2428245632
390 1 171.1319440139 5.3891784284 0.4228842957
391 1 177.3489963396 5.3891784284 -1.2473428423
392 1 175.1323818804 4.6192967836 0.418341553
393 1 181.3494339883 4.6192967836 -1.2519486947
394 1 179.1328159176 3.8494116815 0.4137178157
395 1 185.3498677443 3.8494116815 -1.2566515212
396 1 183.1332531852 3.0795300367 0.4090035832
397 1 172.0150815617 10.008475212 -1.2416180276
398 1 169.7984632732 9.23859011 0.4239871878
399 1 176.0155168148 9.23859011 -1.2458973607
400 1 173.7989019745 8.4687084651 0.419679807
401 1 180.0159552893 8.4687084651 -1.2502646845
402 1 177.7993368375 7.6988268202 0.4152915223
403 1 184.0163898891 7.6988268202 -1.2547302254
404 1 181.7997749218 6.9289451754 0.4108119529
405 1 185.8002091133 6.1590600733 0.406231417
406 1 184.4667347789 10.008475212 0.4081454808
407 1 170.2400339889 0.7698816449 -0.4072080714
408 1 174.2404709843 0.0 -0.4120008304
409 1 168.9065570231 4.6192967836 -0.4060431765
410 1 172.9069912509 3.8494116815 -0.4106136403
411 1 176.9074287453 3.0795300367 -0.4152585836
412 1 180.9078624196 2.3096483918 -0.4199876158
413 1 184.9082993061 1.5397667469 -0.4248097927
414 1 171.5735109639 7.6988268202 -0.409379193
415 1 175.5739492932 6.9289451754 -0.4137919867
416 1 179.574383775 6.1590600733 -0.4182891596
417 1 183.5748214691 5.3891784284 -0.4228805844
418 1 178.2409081793 10.008475212 -0.416733093
419 1 182.2413431784 9.23859011 -0.4210830945
420 1 186.2417813534 8.4687084651 -0.4255383455
421 1 186.6833451639 0.0 -1.2586980928
422 1 189.3503046761 3.0795300367 -1.2614600781
423 1 187.1336865419 2.3096483918 0.4041899449
424 1 193.3507376608 2.3096483918 -1.2663824775
425 1 191.1341230836 1.5397667469 0.3992685527
426 1 197.3511737669 1.5397667469 -1.2714261603
427 1 195.134555669 0.7698816449 0.3942317934
428 1 201.3516058714 0.7698816449 -1.2765978502
429 1 199.1349913577 0.0 0.3890726437
430 1 188.0168276467 6.9289451754 -1.2593035565
431 1 192.0172614481 6.1590600733 -1.2639935251
432 1 189.8006464625 5.3891784284 0.4015408132
433 1 196.0176983618 5.3891784284 -1.2688082614
434 1 193.8010798465 4.6192967836 0.3967317845
435 1 200.0181312557 4.6192967836 -1.2737551425
436 1 197.8015163246 3.8494116815 0.3917966996
437 1 204.0185672167 3.8494116815 -1.2788407654
438 1 201.8019523491 3.0795300367 0.3867286349
439 1 190.6837848361 10.008475212 -1.2617161014
440 1 188.4671694331 9.23859011 0.4036967086
441 1 194.6842226028 9.23859011 -1.2662906485
442 1 192.4676071907 8.4687084651 0.3991264626
443 1 198.6846598794 8.4687084651 -1.2710016052
444 1 196.4680409649 7.6988268202 0.3944263947
445 1 202.685093091 7.6988268202 -1.2758561946
446 1 200.4684777969 6.9289451754 0.389588928
447 1 204.4689105638 6.1590600733 0.3846073297
448 1 203.1354365288 10.008475212 0.3876149394
449 1 188.9087322817 0.7698816449 -0.4297335987
450 1 192.9091684241 0.0 -0.4347669008
451 1 187.5752588002 4.6192967836 -0.4275754983
452 1 191.5756921933 3.8494116815 -0.4323824854
453 1 195.5761287077 3.0795300367 -0.43730944
454 1 199.5765612296 2.3096483918 -0.4423635306
455 1 203.5769968367 1.5397667469 -0.447551218
456 1 190.2422155813 7.6988268202 -0.4301082013
457 1 194.2426529124 6.9289451754 -0.4348013004
458 1 198.2430862509 6.1590600733 -0.4396255008
459 1 202.2435226384 5.3891784284 -0.4445878713
460 1 196.9096109274 10.008475212 -0.4369825213
461 1 200.9100481497 9.23859011 -0.4417083232
462 1 204.9104848456 8.4687084651 -0.4465839461
463 1 205.3520410611 0.0 -1.2819035905
464 1 208.0190026604 3.0795300367 -1.2840709646
465 1 205.8023843356 2.3096483918 0.3815214565
466 1 212.019434039 2.3096483918 -1.2894508215
467 1 209.8028193529 1.5397667469 0.3761697472
468 1 216.0198684301 1.5397667469 -1.2949846735
469 1 213.803250305 0.7698816449 0.3706687976
470 1 220.0202987016 0.7698816449 -1.3006761321
471 1 217.8036842696 0.0 0.3650146695
472 1 206.6855293423 6.9289451754 -1.2808608319
473 1 210.6859614921 6.1590600733 -1.2860210704
474 1 208.4693463705 5.3891784284 0.379475638
475 1 214.6863966273 5.3891784284 -1.2913417012
476 1 212.4697780757 4.6192967836 0.3741887263
477 1 218.6868276248 4.6192967836 -1.2968266533
478 1 216.4702127572 3.8494116815 0.3687422389
479 1 222.6872615985 3.8494116815 -1.3024791753
480 1 220.4706433282 3.0795300367 0.3631325916
481 1 209.3524887275 10.008475212 -1.2826527322
482 1 207.1358731431 9.23859011 0.3827143539
483 1 213.352924634 9.23859011 -1.2877493981
484 1 211.1363091857 8.4687084651 0.3776521964
485 1 217.3533564118 8.4687084651 -1.293017563
486 1 215.1367410906 7.6988268202 0.3724237213
487 1 221.3537911115 7.6988268202 -1.2984607474
488 1 219.1371759536 6.9289451754 0.3670249451
489 1 223.1376066516 6.1590600733 0.3614527372
490 1 221.804136337 10.008475212 0.3655199107
491 1 207.5774283967 0.7698816449 -0.4528782279
492 1 211.5778629966 0.0 -0.4583495962
493 1 206.2439549697 4.6192967836 -0.449694682
494 1 210.2443903318 3.8494116815 -0.454951459
495 1 214.2448251494 3.0795300367 -0.4603629025
496 1 218.2452558474 2.3096483918 -0.4659329871
497 1 222.2456895398 1.5397667469 -0.4716649793
498 1 208.9109174492 7.6988268202 -0.4516154062
499 1 212.9113530381 6.9289451754 -0.4568079209
500 1 216.9117844802 6.1590600733 -0.4621658369
501 1 220.9122188895 5.3891784284 -0.4676927201
502 1 215.5783129587 10.008475212 -0.4584434669
503 1 219.5787481302 9.23859011 -0.4637550056
504 1 223.5791791095 8.4687084651 -0.469246119
505 1 224.0207319676 0.0 -1.3065281191
506 1 226.6876914164 3.0795300367 -1.3083017081
507 1 224.4710768573 2.3096483918 0.357356908
508 1 230.6881241742 2.3096483918 -1.3142960664
509 1 228.4715098057 1.5397667469 0.3514130103
510 1 234.6885563331 1.5397667469 -1.3204633936
511 1 232.4719385891 0.7698816449 0.345299374
512 1 238.6889843271 0.7698816449 -1.3268042432
513 1 236.4723703397 0.0 0.3390150827
514 1 225.3542251851 6.9289451754 -1.3040816737
515 1 229.3546550846 6.1590600733 -1.30988232
516 1 227.1380402714 5.3891784284 0.355704684
517 1 233.3550878968 5.3891784284 -1.3158639565
518 1 231.1384697354 4.6192967836 0.3497791339
519 1 237.3555165169 4.6192967836 -1.3220271732
520 1 235.1389021121 3.8494116815 0.3436750707
521 1 241.3559480406 3.8494116815 -1.3283719972
522 1 239.1393303148 3.0795300367 0.3373920952
523 1 228.0211859496 10.008475212 -1.3054817671
524 1 225.8045706918 9.23859011 0.3599773476
525 1 232.0216194424 9.23859011 -1.3112687751
526 1 229.8050008454 8.4687084651 0.354248985
527 1 236.0220487067 8.4687084651 -1.3172460017
528 1 233.8054338845 7.6988268202 0.3483336886
529 1 240.0224808656 7.6988268202 -1.3234134741
530 1 237.8058662612 6.9289451754 0.3422310409
531 1 241.8062944366 6.1590600733 0.3359412236
532 1 240.4728274975 10.008475212 0.3409670759
533 1 226.2461190945 0.7698816449 -0.4775614018
534 1 230.2465516255 0.0 -0.4836241782
535 1 224.9126491519 4.6192967836 -0.4733913744
536 1 228.9130823362 3.8494116815 -0.4792638777
537 1 232.9135113646 3.0795300367 -0.4853116366
538 1 236.9139433239 2.3096483918 -0.4915354224
539 1 240.9143711092 1.5397667469 -0.4979354255
540 1 227.5796130016 7.6988268202 -0.474919121
541 1 231.5800462494 6.9289451754 -0.4807755452
542 1 235.580475305 6.1590600733 -0.4868162264
543 1 239.5809072553 5.3891784284 -0.4930413823
544 1 234.2470072861 10.008475212 -0.4820956058
545 1 238.2474398897 9.23859011 -0.488137757
546 1 242.2478682557 8.4687084651 -0.4943728126
547 1 242.689415261 0.0 -1.3333186243
548 1 245.3563753903 3.0795300367 -1.334897866
549 1 243.1397614302 2.3096483918 0.3309303888
550 1 249.3568056528 2.3096483918 -1.3416037542
551 1 247.1401883806 1.5397667469 0.3242906592
552 1 253.3572317322 1.5397667469 -1.3484881555
553 1 251.1406182529 0.7698816449 0.3174740499
554 1 257.3576607515 0.7698816449 -1.3555492188
555 1 255.1410474991 0.0 0.3104821306
556 1 244.0229088051 6.9289451754 -1.3297705753
557 1 248.0233396302 6.1590600733 -1.3363161982
558 1 245.8067255067 5.3891784284 0.3294650078
559 1 252.0237697928 5.3891784284 -1.3430486914
560 1 249.8071523755 4.6192967836 0.322803664
561 1 256.0241957724 4.6192967836 -1.3499660042
562 1 253.8075821479 3.8494116815 0.315958907
563 1 260.0246246374 3.8494116815 -1.3570657137
564 1 257.8080077373 3.0795300367 0.3089328785
565 1 246.6898737074 10.008475212 -1.3310011025
566 1 244.4732591665 9.23859011 0.3346617239
567 1 250.6903044326 9.23859011 -1.3375751816
568 1 248.4736866069 8.4687084651 0.3281624056
569 1 254.6907309294 8.4687084651 -1.3443428366
570 1 252.4741169238 7.6988268202 0.3214709814
571 1 258.6911602935 7.6988268202 -1.351301418
572 1 256.4745430213 6.9289451754 0.3145897832
573 1 260.4749720044 6.1590600733 0.3075215152
574 1 259.1415079327 10.008475212 0.3133640561
575 1 244.9148018254 0.7698816449 -0.5045113102
576 1 248.9152319336 0.0 -0.5112622419
577 1 243.5813350133 4.6192967836 -0.4994506318
578 1 247.581765675 3.8494116815 -0.5060430767
579 1 251.5821921446 3.0795300367 -0.5128173285
580 1 255.5826215268 2.3096483918 -0.5197715816
581 1 259.5830467442 1.5397667469 -0.52690364
582 1 246.2482994891 7.6988268202 -0.5007997928
583 1 250.2487265212 6.9289451754 -0.507417164
584 1 254.2491564298 6.1590600733 -0.5142229752
585 1 258.2495856759 5.3891784284 -0.521214831
586 1 252.9156914688 10.008475212 -0.5086354867
587 1 256.9161212322 9.23859011 -0.5154814686
588 1 260.9165467762 8.4687084651 -0.5225193025
589 1 261.3580891447 0.0 -1.3627846847
590 1 264.0250493375 3.0795300367 -1.3643450434
591 1 261.8084362394 2.3096483918 0.3017280193
592 1 268.0254769595 2.3096483918 -1.3718009625
593 1 265.8088605765 1.5397667469 0.2943471423
594 1 272.0259004346 1.5397667469 -1.3794301953
595 1 269.8092878627 0.7698816449 0.2867932691
596 1 276.0263268406 0.7698816449 -1.3872292846
597 1 273.8097110021 0.0 0.2790696484
598 1 262.6915854655 6.9289451754 -1.3584478859
599 1 266.692013532 6.1590600733 -1.3657789647
600 1 264.4754003431 5.3891784284 0.3002691988
601 1 270.6924373973 5.3891784284 -1.3732910701
602 1 268.4758244988 4.6192967836 0.2928361553
603 1 274.6928642026 4.6192967836 -1.3809804637
604 1 272.4762515763 3.8494116815 0.2852258963
605 1 278.6932903999 3.8494116815 -1.38884318
606 1 276.4766744979 3.0795300367 0.2774421602
607 1 265.358550286 10.008475212 -1.3596989386
608 1 263.1419367433 9.23859011 0.306245146
609 1 269.3589781439 9.23859011 -1.3670898878
610 1 267.1423613345 8.4687084651 0.2989372422
611 1 273.3594018005 8.4687084651 -1.3746660013
612 1 271.1427888294 7.6988268202 0.291444165
613 1 277.3598283517 7.6988268202 -1.3824230235
614 1 275.1432121411 6.9289451754 0.2837699795
615 1 279.1436383657 6.1590600733 0.2759188779
616 1 277.810176626 10.008475212 0.2824214719
617 1 263.5834748833 0.7698816449 -0.5342110084
618 1 267.5838988847 0.0 -0.541690892
619 1 262.2500107481 4.6192967836 -0.5283899819
620 1 266.2504387239 3.8494116815 -0.5357454154
621 1 270.2508625347 3.0795300367 -0.5432778285
622 1 274.2512892674 2.3096483918 -0.5509837095
623 1 278.2517118714 1.5397667469 -0.5588593926
624 1 264.9169752148 7.6988268202 -0.5297457034
625 1 268.9173994339 6.9289451754 -0.53715706
626 1 272.917826584 6.1590600733 -0.5447495885
627 1 276.91824956 5.3891784284 -0.552519278
628 1 271.5843641275 10.008475212 -0.5384496173
629 1 275.5847910235 9.23859011 -0.5461100193
630 1 279.5852137455 8.4687084651 -0.5539509489
631 1 280.026749127 0.0 -1.3951945645
632 1 282.6937124413 3.0795300367 -1.396875163
633 1 280.4771003776 2.3096483918 0.2694888126
634 1 286.694137459 2.3096483918 -1.4050722749
635 1 284.4775221105 1.5397667469 0.2613698461
636 1 290.6945583661 1.5397667469 -1.4134302783
637 1 288.4779468378 0.7698816449 0.2530893349
638 1 294.6949822586 0.7698816449 -1.4219449263
639 1 292.4783674636 0.0 0.2446514258
640 1 281.360250756 6.9289451754 -1.3903565534
641 1 285.3606761004 6.1590600733 -1.3984620904
642 1 283.1440604524 5.3891784284 0.2678951795
643 1 289.3610972979 5.3891784284 -1.4067350793
644 1 287.1444854883 4.6192967836 0.259703276
645 1 293.3615214717 4.6192967836 -1.4151709467
646 1 291.1449099524 3.8494116815 0.2513476411