# LAMMPS data file written by OVITO Basic 3.3.0
74970 atoms
1 atom types
0.0 363.7064033936 xlo xhi
0.0 363.1498854434 ylo yhi
0.0 7.8607374037 zlo zhi
0.0 0.0283158307 0.0 xy xz yz

Masses

1 1.008  # H

Atoms  # atomic

1 1 -0.0035336341 0.0 -0.9809701192
2 1 2.1358804749 3.7056104837 -0.9904790216
3 1 0.0027485134 2.4704069859 0.7630137342
4 1 2.1421624127 6.1760174696 0.7534454079
5 1 2.1390370074 1.2352034977 -0.1141976851
6 1 -4.0808588347e-04 4.9408139719 -0.1132872641
7 1 4.2753291898 0.0 -0.9913898523
8 1 6.4147435179 3.7056104837 -1.0008375581
9 1 4.2816113469 2.4704069859 0.7525948874
10 1 6.4210254558 6.1760174696 0.7430871763
11 1 6.4179000411 1.2352034977 -0.1245574795
12 1 4.2784547475 4.9408139719 -0.1237061776
13 1 8.5541888113 0.0 -1.0016909853
14 1 10.6936033683 3.7056104837 -1.0110734915
15 1 8.560470978 2.4704069859 0.7422963467
16 1 10.6998853156 6.1760174696 0.7328533206
17 1 10.6967598818 1.2352034977 -0.1347964342
18 1 8.5573143787 4.9408139719 -0.13400306
19 1 12.8330524931 0.0 -1.0118708496
20 1 14.9724673073 3.7056104837 -1.0211839722
21 1 12.8393346788 2.4704069859 0.7321209142
22 1 14.9787492738 6.1760174696 0.7227468333
23 1 14.9756238018 1.2352034977 -0.1449118519
24 1 12.8361780985 4.9408139719 -0.1441749947
25 1 17.1119129915 0.0 -1.021926767
26 1 19.2513317038 3.7056104837 -1.0311661505
27 1 17.1181951962 2.4704069859 0.7220713824
28 1 19.2576136893 6.1760174696 0.7127706688
29 1 19.2544881792 1.2352034977 -0.1549009971
30 1 17.1150386351 4.9408139719 -0.154219056
31 1 21.3907775882 0.0 -1.0318561166
32 1 23.5301929456 3.7056104837 -1.0410172245
33 1 21.3970598215 2.4704069859 0.712150496
34 1 23.5364749597 6.1760174696 0.7029278104
35 1 23.5333493829 1.2352034977 -0.164761211
36 1 21.3939032889 4.9408139719 -0.1641323558
37 1 25.6696426517 0.0 -1.0416563538
38 1 27.8090583047 3.7056104837 -1.0507344586
39 1 25.6759249232 2.4704069859 0.702360981
40 1 27.815340357 6.1760174696 0.6932211362
41 1 27.8122147038 1.2352034977 -0.1744898725
42 1 25.6727684288 4.9408139719 -0.1739120542
43 1 29.9485045417 0.0 -1.0513249241
44 1 32.0879205187 3.7056104837 -1.0603151463
45 1 29.9547868608 2.4704069859 0.6927054773
46 1 32.0942026091 6.1760174696 0.683653477
47 1 32.0910768606 1.2352034977 -0.184084456
48 1 29.9516304139 4.9408139719 -0.1835553491
49 1 34.2273705489 0.0 -1.060859426
50 1 36.3667868689 3.7056104837 -1.0697566952
51 1 34.2336529251 2.4704069859 0.6831865485
52 1 36.373069026 6.1760174696 0.6742275966
53 1 36.3699431537 1.2352034977 -0.1935425025
54 1 34.230496526 4.9408139719 -0.1930595053
55 1 38.5062334204 0.0 -1.0702575339
56 1 40.6456537244 3.7056104837 -1.0790565891
57 1 38.5125158635 2.4704069859 0.6738067014
58 1 40.6519359386 6.1760174696 0.6649461637
59 1 40.6488099425 1.2352034977 -0.2028616581
60 1 38.5093595214 4.9408139719 -0.2024219016
61 1 42.7851004284 0.0 -1.0795170368
62 1 44.9245174632 3.7056104837 -1.088212455
63 1 42.7913829476 2.4704069859 0.664568271
64 1 44.9307997633 6.1760174696 0.6558117323
65 1 44.9276735956 1.2352034977 -0.2120397019
66 1 42.7882266818 4.9408139719 -0.2116400126
67 1 47.0639643007 0.0 -1.0886358282
68 1 49.2033853671 3.7056104837 -1.0972220817
69 1 47.0702469057 2.4704069859 0.6554735065
70 1 49.2096677623 6.1760174696 0.6468266662
71 1 49.2065414135 1.2352034977 -0.2210745755
72 1 47.0670907257 4.9408139719 -0.2207114459
73 1 51.3428323283 0.0 -1.0976120402
74 1 53.4822501733 3.7056104837 -1.106083382
75 1 51.3491150381 2.4704069859 0.6465244475
76 1 53.488532664 6.1760174696 0.6379932338
77 1 53.485406115 1.2352034977 -0.229964363
78 1 51.3459589535 4.9408139719 -0.2296339715
79 1 55.6217008707 0.0 -1.1064439192
80 1 57.7611191541 3.7056104837 -1.1147944974
81 1 55.6279836853 2.4704069859 0.637723
82 1 57.7674017591 6.1760174696 0.6293134459
83 1 57.7642749814 1.2352034977 -0.2387073586
84 1 55.6248277056 4.9408139719 -0.2384055401
85 1 59.900566306 0.0 -1.1151299497
86 1 62.0399886781 3.7056104837 -1.1233537981
87 1 59.9068492446 2.4704069859 0.6290708512
88 1 62.046271407 6.1760174696 0.6207891133
89 1 62.0431443815 1.2352034977 -0.2473020945
90 1 59.9036933792 4.9408139719 -0.2470243029
91 1 64.1794359062 0.0 -1.1236688451
92 1 66.3188551236 3.7056104837 -1.1317598832
93 1 64.1857189783 2.4704069859 0.6205694019
94 1 66.325137986 6.1760174696 0.6124218087
95 1 66.3220106841 1.2352034977 -0.2557473317
96 1 64.1825632558 4.9408139719 -0.2554886683
97 1 68.458302409 0.0 -1.1320595953
98 1 70.5977257628 3.7056104837 -1.1400116659
99 1 68.4645856241 2.4704069859 0.6122198625
100 1 70.6040087777 6.1760174696 0.6042127806
101 1 70.6008811612 1.2352034977 -0.2640421266
102 1 68.4614300445 4.9408139719 -0.2637973018
103 1 72.7371730863 0.0 -1.1403014662
104 1 74.876593314 3.7056104837 -1.148108327
105 1 72.7434564633 2.4704069859 0.6040230909
106 1 74.8828765004 6.1760174696 0.5961630011
107 1 74.8797485503 1.2352034977 -0.2721858122
108 1 72.7403010458 4.9408139719 -0.2719491742
109 1 77.0160442877 0.0 -1.1483940386
110 1 79.1554650776 3.7056104837 -1.1560494374
111 1 77.0223278458 2.4704069859 0.5959796208
112 1 79.1617484451 6.1760174696 0.5882730421
113 1 79.1586201234 1.2352034977 -0.2801781216
114 1 77.0191725999 4.9408139719 -0.2799435899
115 1 81.2949123916 0.0 -1.1563372744
116 1 83.4343337534 3.7056104837 -1.1638349494
117 1 81.3011961403 2.4704069859 0.5880896712
118 1 83.4406173211 6.1760174696 0.5805431227
119 1 83.4374885991 1.2352034977 -0.2880190832
120 1 81.2980410946 4.9408139719 -0.2877802055
121 1 85.5737846795 0.0 -1.1641314688
122 1 87.7132066227 3.7056104837 -1.1714651966
123 1 85.5800686379 2.4704069859 0.5803530041
124 1 87.7194904096 6.1760174696 0.5729730047
125 1 87.7163612587 1.2352034977 -0.2957092118
126 1 85.5769138018 4.9408139719 -0.2954591165
127 1 89.8526538604 0.0 -1.1717773845
128 1 91.9920800543 3.7056104837 -1.1789409892
129 1 89.858938038 2.4704069859 0.5727690189
130 1 91.9983640795 6.1760174696 0.5655620114
131 1 91.9952344616 1.2352034977 -0.3032493749
132 1 89.8557834307 4.9408139719 -0.302980809
133 1 94.1315272158 0.0 -1.1792761842
134 1 96.270950398 3.7056104837 -1.1862635851
135 1 94.1378116316 2.4704069859 0.5653366101
136 1 96.2772346708 6.1760174696 0.5583089801
137 1 96.2741045574 1.2352034977 -0.3106409445
138 1 94.1346572625 4.9408139719 -0.3103462931
139 1 98.4104010762 0.0 -1.1866295168
140 1 100.5498249255 3.7056104837 -1.1934347953
141 1 98.4166857494 2.4704069859 0.5580542338
142 1 100.5561094749 6.1760174696 0.5512121762
143 1 100.5529788182 1.2352034977 -0.3178857794
144 1 98.4135316377 4.9408139719 -0.3175570462
145 1 102.6892718297 0.0 -1.1938394978
146 1 104.8286963557 3.7056104837 -1.2004569357
147 1 102.6955567698 2.4704069859 0.5509197835
148 1 104.8349811815 6.1760174696 0.5442693408
149 1 104.8318499624 1.2352034977 -0.3249862622
150 1 102.6924029343 4.9408139719 -0.3246150697
151 1 106.968146729 0.0 -1.2009088152
152 1 109.1075719413 3.7056104837 -1.2073329035
153 1 106.9744319645 2.4704069859 0.543930648
154 1 109.113857072 6.1760174696 0.5374776053
155 1 109.1107252525 1.2352034977 -0.3319452998
156 1 106.9712784151 4.9408139719 -0.331522975
157 1 111.2470184832 0.0 -1.2078406426
158 1 113.386448051 3.7056104837 -1.2140661968
159 1 111.2533040237 2.4704069859 0.5370836154
160 1 113.3927335057 6.1760174696 0.5308334815
161 1 113.3896010382 1.2352034977 -0.3387663803
162 1 111.2501507792 4.9408139719 -0.3382839358
163 1 115.5258943547 0.0 -1.2146387731
164 1 117.6653210156 3.7056104837 -1.2206608944
165 1 115.5321802192 2.4704069859 0.530374921
166 1 117.6716068038 6.1760174696 0.5243328424
167 1 117.6684736787 1.2352034977 -0.345453583
168 1 115.5290273083 4.9408139719 -0.3449017549
169 1 119.8047670524 0.0 -1.2213075149
170 1 121.944198107 3.7056104837 -1.2271217427
171 1 119.8110532601 2.4704069859 0.5238001616
172 1 121.9504842574 6.1760174696 0.5179709133
173 1 121.9473504175 1.2352034977 -0.3520115397
174 1 119.8079006923 4.9408139719 -0.3513808546
175 1 124.0836438388 0.0 -1.227851795
176 1 126.2230720151 3.7056104837 -1.233454079
177 1 124.0899303896 2.4704069859 0.5173543432
178 1 126.2293585372 6.1760174696 0.5117422139
179 1 126.2262239634 1.2352034977 -0.35844554
180 1 124.0867781839 4.9408139719 -0.3577263337
181 1 128.3625210542 0.0 -1.2342771414
182 1 130.5019500024 3.7056104837 -1.2396639361
183 1 128.3688079766 2.4704069859 0.5110318331
184 1 130.5082369153 6.1760174696 0.5056406257
185 1 130.5051015695 1.2352034977 -0.3647614454
186 1 128.3656561522 4.9408139719 -0.3639439298
187 1 132.6413950385 0.0 -1.2405896443
188 1 134.7808284186 3.7056104837 -1.245757957
189 1 132.6476823517 2.4704069859 0.5048263886
190 1 134.7871157317 6.1760174696 0.4996593245
191 1 134.7839795759 1.2352034977 -0.3709657461
192 1 132.6445309181 4.9408139719 -0.3700400189
193 1 136.9202730448 0.0 -1.2467959941
194 1 139.0597035752 3.7056104837 -1.251743385
195 1 136.9265607583 2.4704069859 0.4987311288
196 1 139.0659913173 6.1760174696 0.4937908383
197 1 139.0628543322 1.2352034977 -0.3770655045
198 1 136.9234097346 4.9408139719 -0.3760216917
199 1 141.1991477631 0.0 -1.2529034438
200 1 143.3385827443 3.7056104837 -1.2576281592
201 1 141.2054358864 2.4704069859 0.4927386003
202 1 143.3448709152 6.1760174696 0.4880270184
203 1 143.3417330724 1.2352034977 -0.3830683832
204 1 141.2022852915 4.9408139719 -0.3818966302
205 1 145.4780264461 0.0 -1.2589198085
206 1 147.6174585967 3.7056104837 -1.2634207047
207 1 145.4843149984 2.4704069859 0.4868407215
208 1 147.6237472251 6.1760174696 0.4823591059
209 1 147.6206084864 1.2352034977 -0.3889825787
210 1 145.4811648418 4.9408139719 -0.3876731451
211 1 149.7569054342 0.0 -1.2648534181
212 1 151.8963383853 3.7056104837 -1.2691301043
213 1 149.7631944247 2.4704069859 0.4810288763
214 1 151.9026274712 6.1760174696 0.4767777514
215 1 151.899487827 1.2352034977 -0.3948168211
216 1 149.7600447161 4.9408139719 -0.3933601571
217 1 154.0357810483 0.0 -1.2707130883
218 1 156.1752148095 3.7056104837 -1.2747658602
219 1 154.0420704868 2.4704069859 0.475293963
220 1 156.1815043625 6.1760174696 0.4712730523
221 1 156.1783637843 1.2352034977 -0.4005803074
222 1 154.0389212356 4.9408139719 -0.3989671301
223 1 158.3146605414 0.0 -1.2765080832
224 1 160.4540950937 3.7056104837 -1.2803380462
225 1 158.3209504374 2.4704069859 0.4696263269
226 1 160.4603851327 6.1760174696 0.4658345917
227 1 160.457243611 1.2352034977 -0.4062827211
228 1 158.3178016628 4.9408139719 -0.4045040525
229 1 162.5935365844 0.0 -1.2822480669
230 1 164.7329755781 3.7056104837 -1.2858570603
231 1 162.5998269474 2.4704069859 0.4640159704
232 1 164.7392661127 6.1760174696 0.4604515139
233 1 164.7361236093 1.2352034977 -0.4119340691
234 1 162.5966786493 4.9408139719 -0.4099813222
235 1 166.8724164207 0.0 -1.2879430656
236 1 169.0118525741 3.7056104837 -1.2913336915
237 1 166.8787072602 2.4704069859 0.4584524383
238 1 169.0181435947 6.1760174696 0.4551126112
239 1 169.0150001288 1.2352034977 -0.4175447401
240 1 166.8755594482 4.9408139719 -0.4154097947
241 1 171.1512963998 0.0 -1.2936033725
242 1 173.2907333158 3.7056104837 -1.2967790046
243 1 171.157587716 2.4704069859 0.4529250466
244 1 173.2970248416 6.1760174696 0.4498063509
245 1 173.2938803749 1.2352034977 -0.4231253608
246 1 171.1544403901 4.9408139719 -0.4208006208
247 1 175.4301728145 0.0 -1.2992395192
248 1 177.5696104929 3.7056104837 -1.3022043034
249 1 175.4364646167 2.4704069859 0.447422816
250 1 177.5759025238 6.1760174696 0.444520963
251 1 177.5727570659 1.2352034977 -0.4286867485
252 1 175.4333177959 4.9408139719 -0.4261652184
253 1 179.7090529177 0.0 -1.3048621893
254 1 181.8484913489 3.7056104837 -1.3076209958
255 1 179.7153452059 2.4704069859 0.4419346242
256 1 181.8547838755 6.1760174696 0.4392445531
257 1 181.8516374263 1.2352034977 -0.4342398922
258 1 179.7121988711 4.9408139719 -0.431515196
259 1 183.9879294086 0.0 -1.3104821622
260 1 186.127372186 3.7056104837 -1.3130405571
261 1 183.9942221734 2.4704069859 0.4364492438
262 1 186.1336652271 6.1760174696 0.4339651504
263 1 186.1305177772 1.2352034977 -0.4397957902
264 1 183.9910763438 4.9408139719 -0.4368622285
265 1 188.2668094831 0.0 -1.3161102363
266 1 190.4062493345 3.7056104837 -1.318474443
267 1 188.273102734 2.4704069859 0.4309554288
268 1 190.4125428712 6.1760174696 0.4286707941
269 1 190.4093944303 1.2352034977 -0.4453654315
270 1 188.2699574095 4.9408139719 -0.4422180579
271 1 192.5456858692 0.0 -1.3217571336
272 1 194.6851300189 3.7056104837 -1.3239340332
273 1 192.5519795965 2.4704069859 0.4254419901
274 1 194.6914240608 6.1760174696 0.4233496661
275 1 194.6882746381 1.2352034977 -0.4509597382
276 1 192.5488347581 4.9408139719 -0.4475943307
277 1 196.8245657817 0.0 -1.3274334902
278 1 198.9640069483 3.7056104837 -1.3294304882
279 1 196.8308599951 2.4704069859 0.4198978912
280 1 198.9703014763 6.1760174696 0.4179901006
281 1 198.9671510815 1.2352034977 -0.4565894325
282 1 196.8277156428 4.9408139719 -0.4530025789
283 1 201.1034455417 0.0 -1.3331497138
284 1 203.2428873374 3.7056104837 -1.3349747587
285 1 201.1097402221 2.4704069859 0.4143122573
286 1 203.2491823513 6.1760174696 0.4125806991
287 1 203.2460309939 1.2352034977 -0.4622650458
288 1 201.1065963558 4.9408139719 -0.4584540871
289 1 205.382321499 0.0 -1.3389159832
290 1 207.5217675167 3.7056104837 -1.3405774621
291 1 205.3886166368 2.4704069859 0.4086745381
292 1 207.5280630168 6.1760174696 0.407110444
293 1 207.5249107158 1.2352034977 -0.4679967759
294 1 205.3854732471 4.9408139719 -0.4639598536
295 1 209.6612008681 0.0 -1.3447421339
296 1 211.8006438075 3.7056104837 -1.3462488246
297 1 209.6674964731 2.4704069859 0.4029744882
298 1 211.8069397746 6.1760174696 0.40156868
299 1 211.8037865492 1.2352034977 -0.473794468
300 1 209.6643535503 4.9408139719 -0.4695305338
301 1 213.9400763583 0.0 -1.3506376397
302 1 216.0795234532 3.7056104837 -1.351998644
303 1 213.9463724017 2.4704069859 0.3972022717
304 1 216.0858198682 6.1760174696 0.3959452474
305 1 216.0826657468 1.2352034977 -0.479667567
306 1 213.9432299269 4.9408139719 -0.4751763064
307 1 218.2189552034 0.0 -1.3566115642
308 1 220.3583991435 3.7056104837 -1.3578362126
309 1 218.2252516756 2.4704069859 0.39134852
310 1 220.3646960065 6.1760174696 0.3902305011
311 1 220.3615410083 1.2352034977 -0.485625051
312 1 218.2221096488 4.9408139719 -0.4809069403
313 1 222.4978337245 0.0 -1.3626724754
314 1 224.6372781315 3.7056104837 -1.3637703082
315 1 222.504130616 2.4704069859 0.3854043408
316 1 224.6435754234 6.1760174696 0.3844153963
317 1 224.640419577 1.2352034977 -0.4916753926
318 1 222.5009890275 4.9408139719 -0.4867316044
319 1 226.7767082711 0.0 -1.3688284459
320 1 228.9161531071 3.7056104837 -1.3698090986
321 1 226.7830055725 2.4704069859 0.3793614045
322 1 228.9224508088 6.1760174696 0.3784914605
323 1 228.9192941427 1.2352034977 -0.4978265025
324 1 226.7798643939 4.9408139719 -0.4926589046
325 1 231.0555860869 0.0 -1.3750870144
326 1 233.195031304 3.7056104837 -1.3759601798
327 1 231.0618837885 2.4704069859 0.3732119339
328 1 233.201329406 6.1760174696 0.3724508973
329 1 233.1981719585 1.2352034977 -0.5040857763
330 1 231.0587430102 4.9408139719 -0.498696885
331 1 235.3344598711 0.0 -1.3814551385
332 1 237.4739090721 3.7056104837 -1.3822304998
333 1 235.3407579444 2.4704069859 0.3669487715
334 1 237.4802075553 6.1760174696 0.3662865494
335 1 237.4770493548 1.2352034977 -0.510459981
336 1 235.3376175569 4.9408139719 -0.5048529031
337 1 239.6133368767 0.0 -1.3879392418
338 1 241.752782761 3.7056104837 -1.3886263963
339 1 239.6196353122 2.4704069859 0.3605653317
340 1 241.7590816063 6.1760174696 0.3599919547
341 1 241.7559226815 1.2352034977 -0.5169552733
342 1 239.6164952964 4.9408139719 -0.5111336877
343 1 243.8922134343 0.0 -1.3945451189
344 1 246.0316596141 3.7056104837 -1.3951535499
345 1 243.8985122225 2.4704069859 0.3540556957
346 1 246.0379588026 6.1760174696 0.3535612901
347 1 246.0347991916 1.2352034977 -0.5235772478
348 1 243.8953725498 4.9408139719 -0.5175453099
349 1 248.1710859034 0.0 -1.4012779928
350 1 250.3105323309 3.7056104837 -1.4018170115
351 1 248.1773850156 2.4704069859 0.3474145453
352 1 250.316831853 6.1760174696 0.3469894567
353 1 250.3136715844 1.2352034977 -0.530330851
354 1 248.1742456859 4.9408139719 -0.5240932023
355 1 252.4499615365 0.0 -1.4081424762
356 1 254.5894081834 3.7056104837 -1.408621175
357 1 252.4562609728 2.4704069859 0.3406371726
358 1 254.5957080199 6.1760174696 0.3402719749
359 1 254.5925471318 1.2352034977 -0.5372204478
360 1 252.4531219576 4.9408139719 -0.5307820919
361 1 256.7288330429 0.0 -1.4151426291
362 1 258.8682835021 3.7056104837 -1.4155698432
363 1 256.7351327747 2.4704069859 0.3337194984
364 1 258.8745836341 6.1760174696 0.3334050707
365 1 258.8714221646 1.2352034977 -0.544249841
366 1 256.7319940645 4.9408139719 -0.537616096
367 1 261.0077076945 0.0 -1.4222819305
368 1 263.1471546654 3.7056104837 -1.4226662088
369 1 261.0140077026 2.4704069859 0.3266580534
370 1 263.1534550737 6.1760174696 0.3263855608
371 1 263.1502930515 1.2352034977 -0.5514221662
372 1 261.0108692688 4.9408139719 -0.5445987317
373 1 265.2865781907 0.0 -1.4295633062
374 1 267.426028926 3.7056104837 -1.4299128736
375 1 265.2928784561 2.4704069859 0.3194499213
376 1 267.4323295918 6.1760174696 0.319210872
377 1 267.4291670548 1.2352034977 -0.5587401398
378 1 265.2897402987 4.9408139719 -0.5517328483
379 1 269.5654517938 0.0 -1.4369891483
380 1 271.7048989934 3.7056104837 -1.4373118962
381 1 269.571752307 2.4704069859 0.3120927384
382 1 271.7111999069 6.1760174696 0.3118790217
383 1 271.7080368839 1.2352034977 -0.5662058107
384 1 269.5686143974 4.9408139719 -0.5590207525
385 1 273.8443248823 0.0 -1.444561344
386 1 275.9837721485 3.7056104837 -1.4448648018
387 1 273.8506256242 2.4704069859 0.3045846938
388 1 275.9900732813 6.1760174696 0.3043885709
389 1 275.9869098103 1.2352034977 -0.573820828
390 1 273.8474879434 4.9408139719 -0.5664642169
391 1 278.1231937868 0.0 -1.4522812942
392 1 280.2626447415 3.7056104837 -1.452572629
393 1 278.1294947575 2.4704069859 0.296924463
394 1 280.2689460839 6.1760174696 0.2967385856
395 1 280.2657821936 1.2352034977 -0.5815863064
396 1 278.1263572863 4.9408139719 -0.5740644328
397 1 282.4020658078 0.0 -1.4601499617
398 1 284.5415131408 3.7056104837 -1.4604359306
399 1 282.4083669691 2.4704069859 0.289111188
400 1 284.5478146739 6.1760174696 0.2889286368
401 1 284.5446504024 1.2352034977 -0.5895029229
402 1 282.4052297077 4.9408139719 -0.5818221819
403 1 286.6809336544 0.0 -1.468167861
404 1 288.8203846091 3.7056104837 -1.4684548782
405 1 286.6872349968 2.4704069859 0.2811444686
406 1 288.8266863232 6.1760174696 0.2809586866
407 1 288.823521699 1.2352034977 -0.5975709536
408 1 286.6840979165 4.9408139719 -0.5897377214
409 1 290.9598045795 0.0 -1.476335135
410 1 293.0992518934 3.7056104837 -1.476629186
411 1 290.966106103 2.4704069859 0.2730242763
412 1 293.10555376 6.1760174696 0.2728291731
413 1 293.1023888118 1.2352034977 -0.6057902654
414 1 290.9629691941 4.9408139719 -0.597810956
415 1 295.2386749898 0.0 -1.4846515266
416 1 297.3781222466 3.7056104837 -1.4849582629
417 1 295.2449766658 2.4704069859 0.2647510112
418 1 297.3844242753 6.1760174696 0.2645408496
419 1 297.381259022 1.2352034977 -0.6141604006
420 1 295.2418399094 4.9408139719 -0.6060413424
421 1 299.5175412162 0.0 -1.4931164733
422 1 301.6569884158 3.7056104837 -1.4934411273
423 1 299.5238430351 2.4704069859 0.2563253882
424 1 301.6632905684 6.1760174696 0.2560948499
425 1 301.6601250578 1.2352034977 -0.6226805301
426 1 299.5207064217 4.9408139719 -0.6144279943
427 1 303.7964105591 0.0 -1.5017291078
428 1 305.9358576634 3.7056104837 -1.5020765403
429 1 303.802712502 2.4704069859 0.2477483985
430 1 305.9421599399 6.1760174696 0.2474925562
431 1 305.9389941815 1.2352034977 -0.6313495864
432 1 303.7995760125 4.9408139719 -0.622969768
433 1 308.0752757276 0.0 -1.5104882485
434 1 310.2147263773 3.7056104837 -1.510862996
435 1 308.0815777848 2.4704069859 0.2390213955
436 1 310.2210287586 6.1760174696 0.2387356838
437 1 310.2178627906 1.2352034977 -0.6401662067
438 1 308.0784414096 4.9408139719 -0.6316651577
439 1 312.3541440031 0.0 -1.5193925131
440 1 314.4935909072 3.7056104837 -1.5197987024
441 1 312.3604461651 2.4704069859 0.230145904
442 1 314.4998933838 6.1760174696 0.2298261486
443 1 314.4967272251 1.2352034977 -0.6491287709
444 1 312.3573098949 4.9408139719 -0.6405124669
445 1 316.633011783 0.0 -1.5284402627
446 1 318.7724585537 3.7056104837 -1.5288817347
447 1 316.6393140308 2.4704069859 0.2211237253
448 1 318.7787611065 6.1760174696 0.2207661045
449 1 318.7755947859 1.2352034977 -0.6582354963
450 1 316.6361778462 4.9408139719 -0.6495097418
451 1 320.911875398 0.0 -1.5376296766
452 1 323.0513220353 3.7056104837 -1.5381099291
453 1 320.9181777315 2.4704069859 0.2119568419
454 1 323.0576246643 6.1760174696 0.2115578387
455 1 323.0544581911 1.2352034977 -0.6674843725
456 1 320.9150416328 4.9408139719 -0.6586548094
457 1 325.190742158 0.0 -1.5469587632
458 1 327.3301886333 3.7056104837 -1.5474809698
459 1 325.1970445583 2.4704069859 0.2026473886
460 1 327.3364913196 6.1760174696 0.202203839
461 1 327.3333247225 1.2352034977 -0.6768732832
462 1 325.1939085263 4.9408139719 -0.6679453824
463 1 329.4696047818 0.0 -1.5564253587
464 1 331.6090547358 3.7056104837 -1.5569924169
465 1 329.4759072489 2.4704069859 0.193197691
466 1 331.6153574697 6.1760174696 0.1927067166
467 1 331.6121907679 1.2352034977 -0.6863999128
468 1 329.4727712645 4.9408139719 -0.6773789922
469 1 333.7484705412 0.0 -1.5660272142
470 1 335.8879167019 3.7056104837 -1.5666417162
471 1 333.7547730655 2.4704069859 0.1836101507
472 1 335.8942194835 6.1760174696 0.1830691877
473 1 335.8910526863 1.2352034977 -0.6960618592
474 1 333.7516371287 4.9408139719 -0.686953075
475 1 338.0273322024 0.0 -1.5757619371
476 1 340.1667818133 3.7056104837 -1.5764262275
477 1 338.0336347647 2.4704069859 0.1738872934
478 1 340.1730846329 6.1760174696 0.1732940355
479 1 340.169917769 1.2352034977 -0.7058566352
480 1 338.0304988757 4.9408139719 -0.6966649243
481 1 342.3061970278 0.0 -1.5856270689
482 1 344.4456428168 3.7056104837 -1.5863432158
483 1 342.3124996282 2.4704069859 0.1640317401
484 1 344.4519456555 6.1760174696 0.1633841571
485 1 344.4487787344 1.2352034977 -0.7157816579
486 1 342.3093637677 4.9408139719 -0.7065117952
487 1 346.5850613957 0.0 -1.5956200456
488 1 348.724506975 3.7056104837 -1.5963899171
489 1 346.5913640152 2.4704069859 0.1540461784
490 1 348.7308098423 6.1760174696 0.1533424499
491 1 348.7276428832 1.2352034977 -0.7258342872
492 1 346.5882281833 4.9408139719 -0.7164908666
493 1 350.8639216654 0.0 -1.6057382747
494 1 353.0033706948 3.7056104837 -1.6065634912
495 1 350.8702243134 2.4704069859 0.1439333435
496 1 353.0096735622 6.1760174696 0.1431718877
497 1 353.0065065839 1.2352034977 -0.7360118355
498 1 350.8670884911 4.9408139719 -0.7265992219
499 1 355.1427851374 0.0 -1.6159791165
500 1 357.282230326 3.7056104837 -1.6168610978
501 1 355.1490877855 2.4704069859 0.1336959901
502 1 357.2885331932 6.1760174696 0.1328754533
503 1 357.2853662055 1.2352034977 -0.7463115581
504 1 355.1459519726 4.9408139719 -0.7368340213
505 1 359.4216445303 0.0 -1.6263398926
506 1 361.5610931498 3.7056104837 -1.6272798683
507 1 359.4279471974 2.4704069859 0.1233369389
508 1 361.5673960172 6.1760174696 0.1224561394
509 1 361.5642290295 1.2352034977 -0.756730748
510 1 359.4248113845 4.9408139719 -0.7471922909
511 1 -0.0035648186 7.4112209579 -0.9896279579
512 1 2.1358486328 11.1168314415 -0.9993190397
513 1 0.0027169 9.8816279438 0.7542368093
514 1 2.1421301322 13.5872420587 0.7444823578
515 1 2.1390055942 8.6464244556 -0.1229163106
516 1 -4.4012812598e-04 12.3520385705 -0.1221848763
517 1 4.2752980053 7.4112209579 -1.0000479007
518 1 6.4147116663 11.1168314415 -1.0096797111
519 1 4.281579724 9.8816279438 0.7438148174
520 1 6.4209931563 13.5872420587 0.7341188653
521 1 6.4178686373 8.6464244556 -0.1332752474
522 1 4.2784226768 12.3520385705 -0.1326099848
523 1 8.5541576364 7.4112209579 -1.0103441064
524 1 10.6935715262 11.1168314415 -1.0199124422
525 1 8.5604393551 9.8816279438 0.7335182782
526 1 10.6998530066 13.5872420587 0.7238850953
527 1 10.6967284972 8.6464244556 -0.1435080071
528 1 8.5572823078 12.3520385705 -0.1429079251
529 1 12.8330213562 7.4112209579 -1.0205135155
530 1 14.9724355033 11.1168314415 -1.0300139736
531 1 12.8393030844 9.8816279438 0.7233503749
532 1 14.9787169932 13.5872420587 0.7137844217
533 1 14.9755924647 8.6464244556 -0.1536115114
534 1 12.8361460372 12.3520385705 -0.1530753899
535 1 17.1118819214 7.4112209579 -1.0305530686
536 1 19.251299957 11.1168314415 -1.0399810553
537 1 17.1181636496 9.8816279438 0.7133143099
538 1 19.2575814469 13.5872420587 0.7038202755
539 1 19.2544568994 8.6464244556 -0.163582615
540 1 17.1150066119 12.3520385705 -0.163109015
541 1 21.3907465943 7.4112209579 -1.0404597542
542 1 23.5301612655 11.1168314415 -1.0498104469
543 1 21.3970283511 9.8816279438 0.7034132379
544 1 23.536442784 13.5872420587 0.69399604
545 1 23.5333181984 8.6464244556 -0.1734182206
546 1 21.3938713229 12.3520385705 -0.1730055027
547 1 25.6696117627 7.4112209579 -1.0502305701
548 1 27.8090267295 11.1168314415 -1.0594989364
549 1 25.6758935482 9.8816279438 0.6936503422
550 1 27.8153082766 13.5872420587 0.6843151083
551 1 27.8121836242 8.6464244556 -0.1831153163
552 1 25.6727365485 12.3520385705 -0.1827615365
553 1 29.9484737861 7.4112209579 -1.0598625424
554 1 32.0878890768 11.1168314415 -1.0690433502
555 1 29.9547556096 9.8816279438 0.6840287106
556 1 32.0941706526 13.5872420587 0.6747807875
557 1 32.0910459334 8.6464244556 -0.1926708621
558 1 29.9515986481 12.3520385705 -0.192373847
559 1 34.2273399553 7.4112209579 -1.0693528314
560 1 36.3667555891 11.1168314415 -1.0784406195
561 1 34.2336218264 9.8816279438 0.6745513739
562 1 36.3730372126 13.5872420587 0.6653963562
563 1 36.3699123886 8.6464244556 -0.2020819603
564 1 34.2304649031 12.3520385705 -0.2018392131
565 1 38.5062030175 7.4112209579 -1.0786986062
566 1 40.6456226257 11.1168314415 -1.0876877227
567 1 38.5124849363 9.8816279438 0.6652213248
568 1 40.6519043062 13.5872420587 0.6561649976
569 1 40.6487793774 8.6464244556 -0.211345771
570 1 38.5093280702 12.3520385705 -0.2111545088
571 1 42.7850702446 7.4112209579 -1.0878971982
572 1 44.9244865932 11.1168314415 -1.0967817534
573 1 42.7913522301 9.8816279438 0.6560413938
574 1 44.9307683405 13.5872420587 0.6470898187
575 1 44.9276432688 8.6464244556 -0.2204595874
576 1 42.7881954306 12.3520385705 -0.2203166744
577 1 47.0639343647 7.4112209579 -1.0969460248
578 1 49.2033547639 11.1168314415 -1.1057199856
579 1 47.070216436 9.8816279438 0.6470143545
580 1 49.2096365874 13.5872420587 0.6381737358
581 1 49.2065113537 8.6464244556 -0.2294208267
582 1 47.0670597128 12.3520385705 -0.2293227843
583 1 51.3428026879 7.4112209579 -1.1058427125
584 1 53.4822198562 11.1168314415 -1.1144997984
585 1 51.3490848449 9.8816279438 0.6381427611
586 1 53.4885017749 13.5872420587 0.6294195608
587 1 53.4853763506 8.6464244556 -0.238227068
588 1 51.3459281979 12.3520385705 -0.2381700744
589 1 55.6216715447 7.4112209579 -1.1145850219
590 1 57.7610891704 11.1168314415 -1.1231187899
591 1 55.6279538066 9.8816279438 0.6294290533
592 1 57.7673711941 13.5872420587 0.6208299048
593 1 57.7642455601 8.6464244556 -0.2468761385
594 1 55.6247972645 12.3520385705 -0.2468559334
595 1 59.9005373422 7.4112209579 -1.1231709323
596 1 62.0399590662 11.1168314415 -1.1315747968
597 1 59.9068197185 9.8816279438 0.6208754043
598 1 62.0462412137 13.5872420587 0.6124071219
599 1 62.0431153319 8.6464244556 -0.2553660176
600 1 59.9036632907 12.3520385705 -0.2553779691
601 1 64.1794073427 7.4112209579 -1.1315986712
602 1 66.3188259216 11.1168314415 -1.1398658747
603 1 64.1856898524 9.8816279438 0.6124837869
604 1 66.3251082025 13.5872420587 0.6041533757
605 1 66.3219820539 8.6464244556 -0.263694961
606 1 64.1825335582 12.3520385705 -0.263734037
607 1 68.4582742839 7.4112209579 -1.1398667325
608 1 70.5976970182 11.1168314415 -1.1479904035
609 1 68.4645569366 9.8816279438 0.604255888
610 1 70.6039794516 13.5872420587 0.596070477
611 1 70.600852998 8.6464244556 -0.2718615584
612 1 68.4614007852 12.3520385705 -0.2719222309
613 1 72.7371454472 7.4112209579 -1.1479739345
614 1 74.8765650839 11.1168314415 -1.1559470776
615 1 72.7434282524 9.8816279438 0.5961930705
616 1 74.8828476794 13.5872420587 0.5881599125
617 1 74.8797208922 8.6464244556 -0.2798646565
618 1 72.7402722631 12.3520385705 -0.2799409975
619 1 77.0160171728 7.4112209579 -1.1559194004
620 1 79.1554373909 11.1168314415 -1.1637349723
621 1 77.0223001685 9.8816279438 0.5882963733
622 1 79.1617201675 13.5872420587 0.580422807
623 1 79.1585930181 8.6464244556 -0.2877035309
624 1 77.0191443413 12.3520385705 -0.2877891358
625 1 81.2948858581 7.4112209579 -1.1637026632
626 1 83.4343066672 11.1168314415 -1.1713535635
627 1 81.3011690445 9.8816279438 0.5805664634
628 1 83.4405896439 13.5872420587 0.5728598752
629 1 83.4374620942 8.6464244556 -0.295377791
630 1 81.2980134078 12.3520385705 -0.2954657976
631 1 85.573758775 7.4112209579 -1.1713236561
632 1 87.7131801845 11.1168314415 -1.1788027843
633 1 85.5800421616 9.8816279438 0.5730035221
634 1 87.71946339 13.5872420587 0.5654713458
635 1 87.7163354019 8.6464244556 -0.302887551
636 1 85.5768867441 12.3520385705 -0.3029706112
637 1 89.8526286231 7.4112209579 -1.1787827413
638 1 91.992054331 11.1168314415 -1.1860830259
639 1 89.8589122384 9.8816279438 0.5656073299
640 1 91.9983377651 13.5872420587 0.5582569615
641 1 91.9952093005 8.6464244556 -0.3102333447
642 1 89.8557570496 12.3520385705 -0.3103036432
643 1 94.1315027028 7.4112209579 -1.1860808053
644 1 96.2709254275 11.1168314415 -1.19319526
645 1 94.1377865659 9.8816279438 0.5583771437
646 1 96.277209119 13.5872420587 0.5512159027
647 1 96.2740801492 8.6464244556 -0.3174162491
648 1 94.1346316153 12.3520385705 -0.3174655323
649 1 98.4103773447 7.4112209579 -1.1932192488
650 1 100.5498007748 11.1168314415 -1.2001410022