# LAMMPS data file written by OVITO Basic 3.3.0
76608 atoms
1 atom types
0.0 389.672652804 xlo xhi
0.0 378.9073174817 ylo yhi
0.0 8.2218246708 zlo zhi
0.0 0.0289127884 0.0 xy xz yz

Masses

1 1.008  # H

Atoms  # atomic

1 1 -0.0036355732 0.0 -1.033834291
2 1 2.9261967327 3.3831005089 -1.0447622435
3 1 0.4910855369 2.5373263312 0.7891286525
4 1 7.3209658462 2.5373263312 -1.0541762593
5 1 4.885858289 1.6915521534 0.7796449369
6 1 11.7157392662 1.6915521534 -1.0634744113
7 1 9.2806275621 0.8457741778 0.7702754603
8 1 16.1105091973 0.8457741778 -1.0726558619
9 1 13.6754011316 0.0 0.7610210701
10 1 1.4612560472 7.6119789935 -1.0462756518
11 1 5.8560250811 6.7662010177 -1.055711389
12 1 3.4209176833 5.92042684 0.7781555227
13 1 10.2507984313 5.92042684 -1.0650282119
14 1 7.8156907843 5.0746526623 0.7687666475
15 1 14.6455683025 5.0746526623 -1.074225034
16 1 12.2104604062 4.2288746866 0.7594960584
17 1 19.0403424999 4.2288746866 -1.0833009581
18 1 16.6052343247 3.3831005089 0.7503446428
19 1 4.3910878746 10.9950795023 -1.0573431733
20 1 1.9559767487 10.1493015266 0.7765718166
21 1 8.7858572375 10.1493015266 -1.0666828441
22 1 6.3507497599 9.3035273489 0.7671594654
23 1 13.1806309465 9.3035273489 -1.0758993141
24 1 10.7455193022 8.4577531711 0.7578684808
25 1 17.5754011865 8.4577531711 -1.084991437
26 1 15.1402931707 7.6119789935 0.7486999892
27 1 19.5350635902 6.7662010177 0.7396550372
28 1 18.0701219976 10.9950795023 0.7378864253
29 1 2.4411093642 0.8457741778 -0.1271101781
30 1 6.8358822758 0.0 -0.1365496834
31 1 0.9761728057 5.0746526623 -0.1285542555
32 1 5.3709417598 4.2288746866 -0.1380137875
33 1 9.7657150203 3.3831005089 -0.1473567877
34 1 14.1604847918 2.5373263312 -0.1565822493
35 1 18.5552588696 1.6915521534 -0.1656894048
36 1 3.9060009049 8.4577531711 -0.1395738982
37 1 8.3007740856 7.6119789935 -0.1489379818
38 1 12.6955437874 6.7662010177 -0.158181327
39 1 17.0903178253 5.92042684 -0.1673029566
40 1 11.2306063317 10.9950795023 -0.1598837879
41 1 15.6253764122 10.1493015266 -0.1690242581
42 1 20.0201508191 9.3035273489 -0.178038537
43 1 20.5052834346 0.0 -1.0817199235
44 1 23.4351171261 3.3831005089 -1.0922552765
45 1 21.000004784 2.5373263312 0.7413131982
46 1 27.8298882832 2.5373263312 -1.1010874308
47 1 25.3947795697 1.6915521534 0.7324023126
48 1 32.2246637667 1.6915521534 -1.1097970821
49 1 29.7895508663 0.8457741778 0.723612395
50 1 36.6194357911 0.8457741778 -1.118384111
51 1 34.1843264993 0.0 0.7149436144
52 1 21.9701757629 7.6119789935 -1.0939582658
53 1 26.36494689 6.7662010177 -1.102798993
54 1 23.929838326 5.92042684 0.7307344025
55 1 30.7597223635 5.92042684 -1.1115130703
56 1 28.3246096126 5.0746526623 0.7219387529
57 1 35.1544943879 5.0746526623 -1.1201001092
58 1 32.7193852356 4.2288746866 0.713268487
59 1 39.5492707386 4.2288746866 -1.1285599896
60 1 37.1141613073 3.3831005089 0.7047238344
61 1 24.9000050881 10.9950795023 -1.1046284029
62 1 22.4648966836 10.1493015266 0.7289515256
63 1 29.2947805317 10.1493015266 -1.1133515416
64 1 26.859671828 9.3035273489 0.7201455885
65 1 33.6895564239 9.3035273489 -1.1219432556
66 1 31.2544435434 8.4577531711 0.7114692818
67 1 38.0843288968 8.4577531711 -1.1304031361
68 1 35.649219595 7.6119789935 0.7029230641
69 1 40.0439922176 6.7662010177 0.6945071646
70 1 38.5790500568 10.9950795023 0.6925760461
71 1 22.9500294885 0.8457741778 -0.1746775761
72 1 27.3448044137 0.0 -0.1835463348
73 1 21.4850884043 5.0746526623 -0.1763019838
74 1 25.8798632996 4.2288746866 -0.1851777104
75 1 30.2746386336 3.3831005089 -0.193929668
76 1 34.6694105183 2.5373263312 -0.2025575578
77 1 39.0641867295 1.6915521534 -0.2110613894
78 1 24.4149217769 8.4577531711 -0.1869256875
79 1 28.8096970908 7.6119789935 -0.1956850019
80 1 33.2044689657 6.7662010177 -0.2043159221
81 1 37.5992451669 5.92042684 -0.2128181886
82 1 31.7395269544 10.9950795023 -0.2061998496
83 1 36.1343031656 10.1493015266 -0.2147053062
84 1 40.5290798353 9.3035273489 -0.2230772247
85 1 41.0142121418 0.0 -1.1268486666
86 1 43.9440436601 3.3831005089 -1.1368928415
87 1 41.5089339098 2.5373263312 0.6963047351
88 1 48.3388209179 2.5373263312 -1.1450990933
89 1 45.9037108586 1.6915521534 0.6880108699
90 1 52.7335986045 1.6915521534 -1.153179443
91 1 50.2984843484 0.8457741778 0.679841681
92 1 57.1283728518 0.8457741778 -1.1611348774
93 1 54.6932621644 0.0 0.671796271
94 1 42.479105726 7.6119789935 -1.1387310636
95 1 46.8738791062 6.7662010177 -1.1469271775
96 1 44.4387691963 5.92042684 0.6862215235
97 1 51.2686568624 5.92042684 -1.1549919364
98 1 48.8335427259 5.0746526623 0.678065812
99 1 55.6634311795 5.0746526623 -1.162926088
100 1 53.2283206117 4.2288746866 0.6700393919
101 1 60.0582098529 4.2288746866 -1.1707307187
102 1 57.6230950584 3.3831005089 0.6621413163
103 1 45.4089368157 10.9950795023 -1.1488970635
104 1 42.9738270355 10.1493015266 0.6842937943
105 1 49.8037146019 10.1493015266 -1.1569510963
106 1 47.368600605 9.3035273489 0.6761467653
107 1 54.1984889789 9.3035273489 -1.1648687301
108 1 51.7633785507 8.4577531711 0.6681346202
109 1 58.593267722 8.4577531711 -1.1726508022
110 1 56.1581569549 7.6119789935 0.6602566511
111 1 60.55293193 6.7662010177 0.6525118712
112 1 59.0879894701 10.9950795023 0.6504946546
113 1 43.4589594617 0.8457741778 -0.2194413225
114 1 47.85373655 0.0 -0.2276978754
115 1 41.9940179388 5.0746526623 -0.2211917419
116 1 46.3887950671 4.2288746866 -0.2294368211
117 1 50.7835687263 3.3831005089 -0.2375539247
118 1 55.1783467417 2.5373263312 -0.2455438999
119 1 59.5731252058 1.6915521534 -0.2534079031
120 1 44.9238530758 8.4577531711 -0.2313155352
121 1 49.3186306925 7.6119789935 -0.2394205071
122 1 53.7134048801 6.7662010177 -0.2473926786
123 1 58.1081834238 5.92042684 -0.2552329667
124 1 52.24846248 10.9950795023 -0.2493916926
125 1 56.6432410736 10.1493015266 -0.2572131004
126 1 61.038016278 9.3035273489 -0.2648975907
127 1 61.5231514255 0.0 -1.1689667821
128 1 64.4529850672 3.3831005089 -1.1784072942
129 1 62.0178738515 2.5373263312 0.6543702694
130 1 68.8477646277 2.5373263312 -1.1859576384
131 1 66.4126530632 1.6915521534 0.6467246162
132 1 73.2425407292 1.6915521534 -1.1933839645
133 1 70.8074288357 0.8457741778 0.6392023234
134 1 77.6373211471 0.8457741778 -1.2006888942
135 1 75.2022089246 0.0 0.6318009385
136 1 62.9880469437 7.6119789935 -1.1802984889
137 1 67.3828227362 6.7662010177 -1.1878133353
138 1 64.9477112812 5.92042684 0.644898825
139 1 71.7776028748 5.92042684 -1.1951973451
140 1 69.3424871833 5.0746526623 0.6374157482
141 1 76.1723795844 5.0746526623 -1.2024529206
142 1 73.7372674218 4.2288746866 0.6300604476
143 1 80.5671606203 4.2288746866 -1.2095828831
144 1 78.132044211 3.3831005089 0.6228303018
145 1 65.9178802563 10.9950795023 -1.1898364532
146 1 63.482768911 10.1493015266 0.6429094505
147 1 70.3126605247 10.1493015266 -1.1971828019
148 1 67.8775449428 9.3035273489 0.6354609944
149 1 74.7074373838 9.3035273489 -1.2043934295
150 1 72.2723253207 8.4577531711 0.6281473224
151 1 79.1022186191 8.4577531711 -1.2114709576
152 1 76.6671022895 7.6119789935 0.6209660818
153 1 81.0618836045 6.7662010177 0.6139144219
154 1 79.5969412244 10.9950795023 0.6119221467
155 1 63.9679002108 0.8457741778 -0.2611473898
156 1 68.3626795321 0.0 -0.2687642738
157 1 62.5029585185 5.0746526623 -0.2629425877
158 1 66.8977379794 4.2288746866 -0.2705231764
159 1 71.2925139811 3.3831005089 -0.2779767265
160 1 75.6872943193 2.5373263312 -0.2853056802
161 1 80.0820711883 1.6915521534 -0.2925128388
162 1 65.4327958386 8.4577531711 -0.2724464996
163 1 69.8275719799 7.6119789935 -0.2798615712
164 1 74.2223524775 6.7662010177 -0.287144969
165 1 78.6171334337 5.92042684 -0.2942993244
166 1 72.7574100276 10.9950795023 -0.2891602715
167 1 77.1521911533 10.1493015266 -0.2962662497
168 1 81.5469688397 9.3035273489 -0.3032385005
169 1 82.0321019935 0.0 -1.2078754878
170 1 84.9619381971 3.3831005089 -1.2165905221
171 1 82.5268253366 2.5373263312 0.6157222401
172 1 89.3567200804 2.5373263312 -1.2234796256
173 1 86.9216029733 1.6915521534 0.6087327538
174 1 93.7514984746 1.6915521534 -1.2302543904
175 1 91.3163849063 0.8457741778 0.6018578853
176 1 98.1462811553 0.8457741778 -1.2369195413
177 1 95.7111672282 0.0 0.5950931987
178 1 83.4969963952 7.6119789935 -1.2184184666
179 1 87.8917785177 6.7662010177 -1.2252395051
180 1 85.4566653581 5.92042684 0.6069890132
181 1 92.2865610788 5.92042684 -1.2319381704
182 1 89.8514436527 5.0746526623 0.6001860875
183 1 96.6813401509 5.0746526623 -1.2385190178
184 1 94.2462262636 4.2288746866 0.5935013383
185 1 101.0761235195 4.2288746866 -1.2449871613
186 1 98.6410053657 3.3831005089 0.586929971
187 1 86.4268362872 10.9950795023 -1.2271919961
188 1 83.9917231974 10.1493015266 0.6050567085
189 1 90.8216190875 10.1493015266 -1.23381827
190 1 88.3865017312 9.3035273489 0.5983219174
191 1 95.2163984487 9.3035273489 -1.2403181633
192 1 92.7812846013 8.4577531711 0.5917136367
193 1 99.6111821363 8.4577531711 -1.2466966699
194 1 97.1760640124 7.6119789935 0.5852272308
195 1 101.5708477198 6.7662010177 0.5788574864
196 1 100.1059059678 10.9950795023 0.5770408262
197 1 84.4768523837 0.8457741778 -0.2996014918
198 1 88.8716339579 0.0 -0.3065753475
199 1 83.0119109408 5.0746526623 -0.3013276978
200 1 87.4066927641 4.2288746866 -0.3082336381
201 1 91.8014711085 3.3831005089 -0.3150211425
202 1 96.1962537593 2.5373263312 -0.3216947369
203 1 100.5910328812 1.6915521534 -0.3282594055
204 1 85.9417509025 8.4577531711 -0.3100803931
205 1 90.336529506 7.6119789935 -0.3167957257
206 1 94.731312426 6.7662010177 -0.3233888543
207 1 99.1260918669 5.92042684 -0.3298646935
208 1 93.2663703948 10.9950795023 -0.3252833186
209 1 97.6611540324 10.1493015266 -0.3316735483
210 1 102.055934211 9.3035273489 -0.3379429697
211 1 102.5410602873 0.0 -1.2434802425
212 1 105.4709033691 3.3831005089 -1.2513481932
213 1 103.0357887541 2.5373263312 0.5804666721
214 1 109.8656874553 2.5373263312 -1.2576082642
215 1 107.4305686038 1.6915521534 0.57410568
216 1 114.2604679928 1.6915521534 -1.2637739433
217 1 111.8253526801 0.8457741778 0.5678406946
218 1 118.6552527371 0.8457741778 -1.2698523384
219 1 116.2201331777 0.0 0.5616649772
220 1 104.0059623347 7.6119789935 -1.2529592829
221 1 108.4007467998 6.7662010177 -1.2591121127
222 1 105.9656279383 5.92042684 0.5725986715
223 1 112.7955277461 5.92042684 -1.2651617585
224 1 110.3604123933 5.0746526623 0.5664444959
225 1 117.1903129289 5.0746526623 -1.2711154076
226 1 114.7551972174 4.2288746866 0.5603881812
227 1 121.5850984107 4.2288746866 -1.2769807158
228 1 119.1499784526 3.3831005089 0.5544224104
229 1 106.9358053967 10.9950795023 -1.2608298155
230 1 104.5006904129 10.1493015266 0.5708815568
231 1 111.3305906393 10.1493015266 -1.2667653219
232 1 108.895471369 9.3035273489 0.5648361178
233 1 115.7253723431 9.3035273489 -1.2725955211
234 1 113.2902566017 8.4577531711 0.5588976607
235 1 120.1201583034 8.4577531711 -1.2783281685
236 1 117.6850382855 7.6119789935 0.5530588487
237 1 122.079824186 6.7662010177 0.547311757
238 1 120.6148837199 10.9950795023 0.5458605521
239 1 104.9858162797 0.8457741778 -0.3347206408
240 1 109.3805961194 0.0 -0.3410843842
241 1 103.5208756042 5.0746526623 -0.3362286462
242 1 107.9156597005 4.2288746866 -0.3424866238
243 1 112.3104402679 3.3831005089 -0.3486450958
244 1 116.7052250519 2.5373263312 -0.3547110201
245 1 121.1000062373 1.6915521534 -0.3606918233
246 1 106.4507186661 8.4577531711 -0.3440974841
247 1 110.8454996323 7.6119789935 -0.3501434815
248 1 115.240284835 6.7662010177 -0.3560879994
249 1 119.635066479 5.92042684 -0.3619385443
250 1 113.7753438505 10.9950795023 -0.357684256
251 1 118.1701298408 10.1493015266 -0.363405599
252 1 122.5649122823 9.3035273489 -0.3690316632
253 1 123.0500338626 0.0 -1.2758509853
254 1 125.9798802839 3.3831005089 -1.2827658174
255 1 123.5447638746 2.5373263312 0.5485393982
256 1 130.3746663041 2.5373263312 -1.2884793552
257 1 127.9395456682 1.6915521534 0.5427309203
258 1 134.7694486458 1.6915521534 -1.2941303306
259 1 132.3343315887 0.8457741778 0.5369882746
260 1 139.1642350748 0.8457741778 -1.2997281141
261 1 136.7291138008 0.0 0.5313024393
262 1 124.5149406751 7.6119789935 -1.2839715379
263 1 128.9097272136 6.7662010177 -1.2895344815
264 1 126.4746064879 5.92042684 0.541647972
265 1 133.3045101237 5.92042684 -1.2950262898
266 1 130.8693929367 5.0746526623 0.5360585521
267 1 137.6992971406 5.0746526623 -1.3004566821
268 1 135.2641757272 4.2288746866 0.5305341867
269 1 142.0940804394 4.2288746866 -1.3058357766
270 1 139.6589626145 3.3831005089 0.5250651165
271 1 127.4447873356 10.9950795023 -1.2908161021
272 1 125.0096704279 10.1493015266 0.5403413504
273 1 131.8395708138 10.1493015266 -1.2961477863
274 1 129.4044535173 9.3035273489 0.5349057943
275 1 136.2343584189 9.3035273489 -1.3014091029
276 1 133.7992407836 8.4577531711 0.5295441946
277 1 140.6291462434 8.4577531711 -1.3066105187
278 1 138.1940243714 7.6119789935 0.5242465229
279 1 142.5888120364 6.7662010177 0.5190022325
280 1 141.1238736137 10.9950795023 0.5181355807
281 1 125.4947915796 0.8457741778 -0.3665953807
282 1 129.8895732835 0.0 -0.3724300258
283 1 124.0298523197 5.0746526623 -0.3677031606
284 1 128.4246345419 4.2288746866 -0.3733903716
285 1 132.819420881 3.3831005089 -0.3790091587
286 1 137.2142074495 2.5373263312 -0.3845689024
287 1 141.6089902897 1.6915521534 -0.3900793219
288 1 126.9596989005 8.4577531711 -0.3745711707
289 1 131.3544819102 7.6119789935 -0.3800333328
290 1 135.7492690568 6.7662010177 -0.3854278584
291 1 140.1440525151 5.92042684 -0.3907648459
292 1 134.2843298666 10.9950795023 -0.3865147344
293 1 138.679113923 10.1493015266 -0.3916761965
294 1 143.0739020864 9.3035273489 -0.3967820642
295 1 143.5590177554 0.0 -1.3052824249
296 1 146.4888677754 3.3831005089 -1.3111739902
297 1 144.0537496615 2.5373263312 0.5196412635
298 1 150.8836552309 2.5373263312 -1.3164820192
299 1 148.4485329204 1.6915521534 0.5142522703
300 1 155.2784388487 1.6915521534 -1.3217707491
301 1 152.8433201666 0.8457741778 0.5088875505
302 1 159.6732263841 0.8457741778 -1.3270511753
303 1 157.238103565 0.0 0.5035363678
304 1 145.0239303397 7.6119789935 -1.3117629393
305 1 149.4187184732 6.7662010177 -1.3168775693
306 1 146.9835959631 5.92042684 0.5138005077
307 1 153.8135027788 5.92042684 -1.3219658826
308 1 151.3783838973 5.0746526623 0.5086302036
309 1 158.2082910617 5.0746526623 -1.3270395122
310 1 155.7731679935 4.2288746866 0.5034800059
311 1 162.6030754471 4.2288746866 -1.3321101911
312 1 160.1679560272 3.3831005089 0.4983384509
313 1 147.9537809178 10.9950795023 -1.3174986172
314 1 145.5186582085 10.1493015266 0.5131244138
315 1 152.3485659511 10.1493015266 -1.3223819679
316 1 149.9134468404 9.3035273489 0.5081526225
317 1 156.7433549718 9.3035273489 -1.3272434677
318 1 154.3082316643 8.4577531711 0.5032082745
319 1 161.1381401247 8.4577531711 -1.3320955872
320 1 158.7030204457 7.6119789935 0.4982792081
321 1 163.0978092471 6.7662010177 0.4933532221
322 1 161.6328736656 10.9950795023 0.4932970495
323 1 146.0037771671 0.8457741778 -0.3955504555
324 1 150.3985602366 0.0 -0.4009925808
325 1 144.5388400105 5.0746526623 -0.3960547821
326 1 148.9336237579 4.2288746866 -0.4013084329
327 1 153.3284114926 3.3831005089 -0.4065368235
328 1 157.7231953596 2.5373263312 -0.4117510986
329 1 162.1179831541 1.6915521534 -0.4169625628
330 1 147.4686904092 8.4577531711 -0.401843602
331 1 151.8634749441 7.6119789935 -0.4068723833
332 1 156.2582634365 6.7662010177 -0.4118802406
333 1 160.653048071 5.92042684 -0.4168790765
334 1 154.7933268381 10.9950795023 -0.412230803
335 1 159.1881122402 10.1493015266 -0.4170111991
336 1 163.58290155 9.3035273489 -0.4217884052
337 1 164.0680100218 0.0 -1.3323343627
338 1 166.9978637002 3.3831005089 -1.337189712
339 1 164.5627401534 2.5373263312 0.4931940151
340 1 171.3926479758 2.5373263312 -1.3422897282
341 1 168.9575281274 1.6915521534 0.4880351946
342 1 175.7874360395 1.6915521534 -1.347421843
343 1 173.3523160017 0.8457741778 0.4828505857
344 1 180.1822239537 0.8457741778 -1.3525973707
345 1 177.7470998587 0.0 0.4776289538
346 1 165.5329291553 7.6119789935 -1.3369508368
347 1 169.9277181461 6.7662010177 -1.3418217169
348 1 167.4925941009 5.92042684 0.488418045
349 1 174.3225031395 5.92042684 -1.3467205987
350 1 171.8873827826 5.0746526623 0.4834614656
351 1 178.717291871 5.0746526623 -1.3516596932
352 1 176.282167457 4.2288746866 0.4784714718
353 1 183.1120765455 4.2288746866 -1.3566508933
354 1 180.6769558498 3.3831005089 0.4734362209
355 1 168.4627836909 10.9950795023 -1.3415609907
356 1 166.0276593368 10.1493015266 0.4885925636
357 1 172.8575695317 10.1493015266 -1.3462184153
358 1 170.4224488559 9.3035273489 0.4838717693
359 1 177.2523591405 9.3035273489 -1.3509122149
360 1 174.8172343676 8.4577531711 0.4791217672
361 1 181.6471446722 8.4577531711 -1.3556552192
362 1 179.2120236276 7.6119789935 0.4743298275
363 1 183.6068088004 6.7662010177 0.4694835496
364 1 182.1418806852 10.9950795023 0.4704376152
365 1 166.5127709087 0.8457741778 -0.4221824901
366 1 170.9075547059 0.0 -0.4274221152
367 1 165.0478366032 5.0746526623 -0.4218809129
368 1 169.442621168 4.2288746866 -0.426897742
369 1 173.8374095506 3.3831005089 -0.4319414361
370 1 178.2321938961 2.5373263312 -0.4370237084
371 1 182.6269819498 1.6915521534 -0.4421559927
372 1 167.9776869322 8.4577531711 -0.426575191
373 1 172.3724761423 7.6119789935 -0.4313842865
374 1 176.7672652127 6.7662010177 -0.4362282418
375 1 181.1620502261 5.92042684 -0.4411193679
376 1 175.3023319439 10.9950795023 -0.4356300019
377 1 179.6971178444 10.1493015266 -0.4402706395
378 1 184.0919074433 9.3035273489 -0.4449679781
379 1 184.5770077707 0.0 -1.3578273961
380 1 187.5068648783 3.3831005089 -1.3617057621
381 1 185.0717401652 2.5373263312 0.4683442095
382 1 191.9016490642 2.5373263312 -1.3668354147
383 1 189.4665281393 1.6915521534 0.4631843224
384 1 196.2964368289 1.6915521534 -1.3720504973
385 1 193.8613119365 0.8457741778 0.4579458736
386 1 200.6912203769 0.8457741778 -1.3773610683
387 1 198.2560993024 0.0 0.4526186752
388 1 186.0419338922 7.6119789935 -1.3604599185
389 1 190.4367189455 6.7662010177 -1.3653383348
390 1 188.0015976417 5.92042684 0.4645709115
391 1 194.8315076073 5.92042684 -1.3703020118
392 1 192.3963862038 5.0746526623 0.4595803593
393 1 199.2262959301 5.0746526623 -1.3753618947
394 1 196.7911705591 4.2288746866 0.4545008284
395 1 203.6210799766 4.2288746866 -1.3805283112
396 1 201.1859584633 3.3831005089 0.4493218816
397 1 188.9717921362 10.9950795023 -1.3640128627
398 1 186.536666526 10.1493015266 0.4657825232
399 1 193.3665778273 10.1493015266 -1.3687140391
400 1 190.9314560052 9.3035273489 0.4610505342
401 1 197.7613670574 9.3035273489 -1.3735118801
402 1 195.3262412677 8.4577531711 0.4562296661
403 1 202.1561520308 8.4577531711 -1.3784176201
404 1 199.7210300691 7.6119789935 0.4513085147
405 1 204.115814594 6.7662010177 0.4462764439
406 1 202.6508905161 10.9950795023 0.4483791901
407 1 187.0217659064 0.8457741778 -0.4473493738
408 1 191.4165535116 0.0 -0.4526145881
409 1 185.5568389378 5.0746526623 -0.4460696472
410 1 189.9516235025 4.2288746866 -0.4510906531
411 1 194.3464116559 3.3831005089 -0.4561934804
412 1 198.7411956125 2.5373263312 -0.4613886859
413 1 203.1359830981 1.6915521534 -0.4666862179
414 1 188.4866928852 8.4577531711 -0.4497345178
415 1 192.8814819558 7.6119789935 -0.454582311
416 1 197.2762667996 6.7662010177 -0.4595228012
417 1 201.6710551723 5.92042684 -0.4645668343
418 1 195.8113413361 10.9950795023 -0.4578133424
419 1 200.2061267481 10.1493015266 -0.4625921535
420 1 204.6009156492 9.3035273489 -0.4674865892
421 1 205.0860074438 0.0 -1.3827766275
422 1 208.0158675119 3.3831005089 -1.3858108807
423 1 205.5807420711 2.5373263312 0.4440337298
424 1 212.410650711 2.5373263312 -1.3912185149
425 1 209.9755291779 1.6915521534 0.4386272021
426 1 216.8054373392 1.6915521534 -1.3967593882
427 1 214.3703119383 0.8457741778 0.4330939348
428 1 221.2002195713 0.8457741778 -1.4024408872
429 1 218.7650981079 0.0 0.4274262122
430 1 206.5509404733 7.6119789935 -1.3834417759
431 1 210.9457245696 6.7662010177 -1.388594067
432 1 208.5106025879 5.92042684 0.441123455
433 1 215.340512085 5.92042684 -1.393883425
434 1 212.9053862256 5.0746526623 0.4358403672
435 1 219.7352951844 5.0746526623 -1.3993179542
436 1 217.3001732625 4.2288746866 0.430418797
437 1 224.1300816532 4.2288746866 -1.4049049019
438 1 221.694959801 3.3831005089 0.4248511383
439 1 209.4807979896 10.9950795023 -1.3860921419
440 1 207.0456755493 10.1493015266 0.4434918718
441 1 213.8755864421 10.1493015266 -1.3911176336
442 1 211.4404639918 9.3035273489 0.4384711052
443 1 218.2703743562 9.3035273489 -1.3962929818
444 1 215.8352480582 8.4577531711 0.4333077193
445 1 222.6651578046 8.4577531711 -1.4016261215
446 1 220.2300354839 7.6119789935 0.4279933902
447 1 224.6248184437 6.7662010177 0.4225207215
448 1 223.1598946947 10.9950795023 0.4258248119
449 1 207.5307662872 0.8457741778 -0.4720953974
450 1 211.9255529553 0.0 -0.4776248667
451 1 206.0658431463 5.0746526623 -0.4697245582
452 1 210.460626794 4.2288746866 -0.4750054031
453 1 214.8554138708 3.3831005089 -0.4804180415
454 1 219.2501965615 2.5373263312 -0.4859703486
455 1 223.6449826415 1.6915521534 -0.4916694221
456 1 208.995700214 8.4577531711 -0.4725069271
457 1 213.390488188 7.6119789935 -0.4776626573
458 1 217.7852717758 6.7662010177 -0.4829624124
459 1 222.1800587131 5.92042684 -0.4884139579
460 1 216.3203466113 10.9950795023 -0.4800588962
461 1 220.7151344657 10.1493015266 -0.4852505529
462 1 225.1099217418 9.3035273489 -0.4906067995
463 1 225.5950051928 0.0 -1.4082696508
464 1 228.5248675537 3.3831005089 -1.4106506779
465 1 226.0897419035 2.5373263312 0.4191306525
466 1 232.9196489883 2.5373263312 -1.4165608643
467 1 230.4845273356 1.6915521534 0.4132513884
468 1 237.3144337325 1.6915521534 -1.4226402262
469 1 234.8793083017 0.8457741778 0.4072081723
470 1 241.7092139509 0.8457741778 -1.428892731
471 1 239.2740925773 0.0 0.4009966779
472 1 227.0599445923 7.6119789935 -1.4071241003
473 1 231.4547268742 6.7662010177 -1.412793019
474 1 229.019604743 5.92042684 0.4168831636
475 1 235.8495124358 5.92042684 -1.418638141
476 1 233.4143865365 5.0746526623 0.4110750846
477 1 240.2442934518 5.0746526623 -1.4246637826
478 1 237.8091715996 4.2288746866 0.4050916995
479 1 244.6390777374 4.2288746866 -1.4308735126
480 1 242.2039521471 3.3831005089 0.3989290706
481 1 229.9898045208 10.9950795023 -1.4090926406
482 1 227.5546818812 10.1493015266 0.420441142
483 1 234.3845909298 10.1493015266 -1.4146917199
484 1 231.9494684397 9.3035273489 0.4148799728
485 1 238.779372803 9.3035273489 -1.4204792041
486 1 236.3442504525 8.4577531711 0.4091360909
487 1 243.1741578861 8.4577531711 -1.4264589606
488 1 240.7390357151 7.6119789935 0.4032051202
489 1 245.1338164021 6.7662010177 0.3970836214
490 1 243.6688967403 10.9950795023 0.4015517242
491 1 228.0397642754 0.8457741778 -0.497521552
492 1 232.434549249 0.0 -0.5035322707
493 1 226.5748411944 5.0746526623 -0.4940241821
494 1 230.9696270053 4.2288746866 -0.4997991558
495 1 235.3644122179 3.3831005089 -0.5057440425
496 1 239.7591929049 2.5373263312 -0.5118632087
497 1 244.1539768815 1.6915521534 -0.5181602428
498 1 229.5047045223 8.4577531711 -0.4961342453
499 1 233.8994905823 7.6119789935 -0.5018386219
500 1 238.2942720867 6.7662010177 -0.5077247045
501 1 242.6890568509 5.92042684 -0.5137964107
502 1 236.829351099 10.9950795023 -0.5036353949
503 1 241.2241367005 10.1493015266 -0.5094705285
504 1 245.6189176965 9.3035273489 -0.5155029388
505 1 246.1039974591 0.0 -1.4353215887
506 1 249.0338574575 3.3831005089 -1.4372700125
507 1 246.5987359443 2.5373263312 0.3925840381
508 1 253.4286404073 2.5373263312 -1.443855276
509 1 250.9935191035 1.6915521534 0.3860542095
510 1 257.8234226992 1.6915521534 -1.4506305591
511 1 255.3882976872 0.8457741778 0.37933791
512 1 262.2182004157 0.8457741778 -1.4575964699
513 1 259.7830795305 0.0 0.3724341329
514 1 247.5689422815 7.6119789935 -1.4326339803
515 1 251.9637220913 6.7662010177 -1.4390064362
516 1 249.5286002989 5.92042684 0.390768943
517 1 256.3585051009 5.92042684 -1.4455777238
518 1 253.9233796302 5.0746526623 0.3842592707
519 1 260.7532835051 5.0746526623 -1.4523484912
520 1 258.3181621614 4.2288746866 0.3775534879
521 1 265.1480650992 4.2288746866 -1.4593187682
522 1 262.7129401071 3.3831005089 0.3706511563
523 1 250.4988037253 10.9950795023 -1.4341720906
524 1 248.0636814445 10.1493015266 0.3954627925
525 1 254.8935874826 10.1493015266 -1.4405295638
526 1 252.4584615334 9.3035273489 0.3891697458
527 1 259.2883665946 9.3035273489 -1.4470960067
528 1 256.8532447923 8.4577531711 0.3826713379
529 1 263.6831488865 8.4577531711 -1.4538714493
530 1 261.2480273235 7.6119789935 0.3759671102
531 1 265.6428052392 6.7662010177 0.3690572623
532 1 264.1778892856 10.9950795023 0.3745785475
533 1 248.5487563125 0.8457741778 -0.5246379162
534 1 252.9435390131 0.0 -0.5312983422
535 1 247.0838370593 5.0746526623 -0.5200568205
536 1 251.4786204777 4.2288746866 -0.5265082169
537 1 255.8733993305 3.3831005089 -0.533152145
538 1 260.2681814031 2.5373263312 -0.5399894522
539 1 264.6629588903 1.6915521534 -0.5470203477
540 1 250.0137018925 8.4577531711 -0.5217351676
541 1 254.4084853806 7.6119789935 -0.5281688999
542 1 258.8032642633 6.7662010177 -0.5348050526
543 1 263.198046326 5.92042684 -0.541643865
544 1 257.3383471235 10.9950795023 -0.5296190879
545 1 261.7331299039 10.1493015266 -0.5362568556
546 1 266.127908029 9.3035273489 -0.5431065435
547 1 266.6129813618 0.0 -1.4647530184
548 1 269.5428421078 3.3831005089 -1.4664879368
549 1 267.1077212526 2.5373263312 0.363552475
550 1 273.9376223164 2.5373263312 -1.4738548706
551 1 271.5024978226 1.6915521534 0.3562582216
552 1 278.3323979295 1.6915521534 -1.4814179147
553 1 275.8972776025 0.8457741778 0.3487696522
554 1 282.7271767723 0.8457741778 -1.4891750356
555 1 280.2920566946 0.0 0.3410884913
556 1 268.077926543 7.6119789935 -1.4608552138
557 1 272.4727073696 6.7662010177 -1.4680460838
558 1 270.037586335 5.92042684 0.3619426413
559 1 276.8674874684 5.92042684 -1.4754422452
560 1 274.4323628153 5.0746526623 0.354624643
561 1 281.2622629719 5.0746526623 -1.4830414451
562 1 278.8271424854 4.2288746866 0.3471051512
563 1 285.6570416452 4.2288746866 -1.4908410218
564 1 283.2219175602 3.3831005089 0.3393865187
565 1 271.0077925325 10.9950795023 -1.4622070425
566 1 268.5726710393 10.1493015266 0.3676516335
567 1 275.4025732494 10.1493015266 -1.4694291738
568 1 272.9674481476 9.3035273489 0.3605116327
569 1 279.7973493211 9.3035273489 -1.4768639632
570 1 277.3622284159 8.4577531711 0.3531605887
571 1 284.1921285426 8.4577531711 -1.4845084998
572 1 281.7570040489 7.6119789935 0.3456010635
573 1 286.1517828519 6.7662010177 0.3378360276
574 1 284.6868700484 10.9950795023 0.344254508
575 1 269.0577395973 0.8457741778 -0.5542444626
576 1 273.4525196363 0.0 -0.5616608801
577 1 267.5928237832 5.0746526623 -0.5486849183
578 1 271.9876044303 4.2288746866 -0.5559272259
579 1 276.3823804721 3.3831005089 -0.5633692623
580 1 280.7771597135 2.5373263312 -0.571009044
581 1 285.1719343797 1.6915521534 -0.5788441585
582 1 270.5226893042 8.4577531711 -0.5501670754
583 1 274.9174659639 7.6119789935 -0.5574367664
584 1 279.3122457837 6.7662010177 -0.5649134733
585 1 283.7070248756 5.92042684 -0.5725945644
586 1 277.8473320032 10.9950795023 -0.5587751876
587 1 282.2421116634 10.1493015266 -0.566296025
588 1 286.6368866883 9.3035273489 -0.5740276267
589 1 287.1219549273 0.0 -1.4971237512
590 1 290.051815743 3.3831005089 -1.4988379252
591 1 287.6166958348 2.5373263312 0.331471427
592 1 294.4465930508 2.5373263312 -1.5070288255
593 1 292.0114695339 1.6915521534 0.3233629661
594 1 298.8413658029 1.6915521534 -1.5154101243
595 1 296.4062464727 0.8457741778 0.3150644556
596 1 303.2361417748 0.8457741778 -1.5239780235
597 1 300.801018856 0.0 0.3065794645
598 1 288.5869031589 7.6119789935 -1.4923594443
599 1 292.981680955 6.7662010177 -1.5004131979
600 1 290.546560947 5.92042684 0.3298688005
601 1 297.3764541357 5.92042684 -1.5086658233
602 1 294.9413344468 5.0746526623 0.3217030307
603 1 301.7712305463 5.0746526623 -1.5171132133
604 1 299.3361111564 4.2288746866 0.3133425761
605 1 306.1660062889 4.2288746866 -1.5257510117
606 1 303.7308833004 3.3831005089 0.3047915436
607 1 291.5167690586 10.9950795023 -1.4937338218
608 1 289.0816486619 10.1493015266 0.3364338379
609 1 295.9115466255 10.1493015266 -1.5018533478
610 1 293.4764226401 9.3035273489 0.3284055438
611 1 300.3063195769 9.3035273489 -1.5101762909
612 1 297.8711998083 8.4577531711 0.3201738224
613 1 304.7010957083 8.4577531711 -1.5186979762
614 1 302.2659723808 7.6119789935 0.3117431396
615 1 306.6607481534 6.7662010177 0.3031181009
616 1 305.1958379118 10.9950795023 0.3102617003
617 1 289.5667122555 0.8457741778 -0.5868718645
618 1 293.9614855858 0.0 -0.5950890917
619 1 288.1017993822 5.0746526623 -0.5804770193
620 1 292.4965770787 4.2288746866 -0.5885575285
621 1 296.8913501995 3.3831005089 -0.5968324635
622 1 301.2861265303 2.5373263312 -0.6052979662
623 1 305.6808983254 1.6915521534 -0.6139500096
624 1 291.0316648932 8.4577531711 -0.5819663836
625 1 295.4264384626 7.6119789935 -0.5901083287
626 1 299.821215252 6.7662010177 -0.598449305
627 1 304.2159874557 5.92042684 -0.6069849062
628 1 298.3563042229 10.9950795023 -0.5915283022
629 1 302.7510807331 10.1493015266 -0.5999438428
630 1 307.1458526578 9.3035273489 -0.6085577068
631 1 307.630913221 0.0 -1.5327284959
632 1 310.5607774659 3.3831005089 -1.5345747626
633 1 308.1256586941 2.5373263312 0.2960541798
634 1 314.9555519127 2.5373263312 -1.5435799202
635 1 312.5204295323 1.6915521534 0.2871348708
636 1 319.3503218436 1.6915521534 -1.5527618295
637 1 316.91520366 0.8457741778 0.2780380927
638 1 323.7450950542 0.8457741778 -1.562115825
639 1 321.3099732819 0.0 0.2687684008
640 1 309.0958672841 7.6119789935 -1.5274135687
641 1 313.4906420897 6.7662010177 -1.5363181243
642 1 311.0555193803 5.92042684 0.2943034513
643 1 317.8854123397 5.92042684 -1.5454066387