# LAMMPS data file written by OVITO Basic 3.3.0
76608 atoms
1 atom types
0.0 372.5590671046 xlo xhi
0.0 362.2665221804 ylo yhi
0.0 7.8607397959 zlo zhi
0.0 0.0276430008 0.0 xy xz yz

Masses

1 1.008  # H

Atoms  # atomic

1 1 -0.0034759066 0.0 -0.9884305101
2 1 2.7976844592 3.2345220032 -0.9988785304
3 1 0.4695181152 2.4258924101 0.7544718176
4 1 6.9994447553 2.4258924101 -1.0078791029
5 1 4.6712818902 1.6172628171 0.7454046063
6 1 11.2012091689 1.6172628171 -1.0167689
7 1 8.873042339 0.808629593 0.736446617
8 1 15.4029702468 0.808629593 -1.0255471211
9 1 13.0748068955 0.0 0.7275986597
10 1 1.3970808211 7.2776772304 -1.0003254731
11 1 5.5988410412 6.4690440062 -1.009346813
12 1 3.2706783285 5.6604144132 0.743980604
13 1 9.800605388 5.6604144132 -1.0182544611
14 1 7.4724424371 4.8517848203 0.735004068
15 1 14.0023664086 4.8517848203 -1.0270473785
16 1 11.6742032194 4.0431515961 0.7261406233
17 1 18.2041315655 4.0431515961 -1.0357247075
18 1 15.8759681095 3.2345220032 0.7173911182
19 1 4.1982407294 10.5121992335 -1.0109069328
20 1 1.8700744523 9.7035660094 0.7424664509
21 1 8.400001264 9.7035660094 -1.0198364253
22 1 6.071838475 8.8949364163 0.7334674699
23 1 12.6017659539 8.8949364163 -1.0286481278
24 1 10.2735991812 8.0863068233 0.7245845254
25 1 16.8035273271 8.0863068233 -1.0373409442
26 1 14.4753640236 7.2776772304 0.7158186942
27 1 18.6771255684 6.4690440062 0.7071709771
28 1 17.2765210631 10.5121992335 0.7054800389
29 1 2.3339010856 0.808629593 -0.1215277722
30 1 6.5356650131 0.0 -0.1305527147
31 1 0.9333013934 4.8517848203 -0.1229084288
32 1 5.1350615372 4.0431515961 -0.1319525184
33 1 9.3368257982 3.2345220032 -0.1408851942
34 1 13.5385867236 2.4258924101 -0.1497054934
35 1 17.7403517661 1.6172628171 -0.1584126821
36 1 3.7344577372 8.0863068233 -0.1334441125
37 1 7.936221922 7.2776772304 -0.1423969457
38 1 12.1379827806 6.4690440062 -0.1512343429
39 1 16.339747785 5.6604144132 -0.1599553702
40 1 10.7373822306 10.5121992335 -0.1528620355
41 1 14.9391434513 9.7035660094 -0.1616010758
42 1 19.1409088084 8.8949364163 -0.1702194669
43 1 19.6047354418 0.0 -1.0342131086
44 1 22.4058971323 3.2345220032 -1.0442857715
45 1 20.0777296924 2.4258924101 0.7087563152
46 1 26.6076593824 2.4258924101 -1.0527300365
47 1 24.2794954116 1.6172628171 0.7002367766
48 1 30.8094257688 1.6172628171 -1.0610571787
49 1 28.4812577951 0.808629593 0.6918328933
50 1 35.011188848 0.808629593 -1.0692670837
51 1 32.6830243245 0.0 0.6835448269
52 1 21.0052928463 7.2776772304 -1.0459139691
53 1 25.2070550677 6.4690440062 -1.0543664306
54 1 22.8788912399 5.6604144132 0.6986421176
55 1 29.4088214446 5.6604144132 -1.0626978043
56 1 27.0806536139 4.8517848203 0.6902327539
57 1 33.6105845238 4.8517848203 -1.0709077189
58 1 31.2824201337 4.0431515961 0.6819432675
59 1 37.8123517393 4.0431515961 -1.0789960596
60 1 35.4841870824 3.2345220032 0.6737738777
61 1 23.8064503623 10.5121992335 -1.0561154967
62 1 21.4782866871 9.7035660094 0.6969375408
63 1 28.0082167106 9.7035660094 -1.0644555339
64 1 25.6800527494 8.8949364163 0.6885183415
65 1 32.2099834878 8.8949364163 -1.0726699183
66 1 29.8818155331 8.0863068233 0.6802230795
67 1 36.4117469958 8.0863068233 -1.080758259
68 1 34.0835824628 7.2776772304 0.6720521933
69 1 38.2853461139 6.4690440062 0.6640059021
70 1 36.8847410654 10.5121992335 0.6621595941
71 1 21.9421135015 0.808629593 -0.1670061123
72 1 26.1438793541 0.0 -0.1754853741
73 1 20.5415094823 4.8517848203 -0.1685591794
74 1 24.7432753064 4.0431515961 -0.1770451032
75 1 28.9450415498 3.2345220032 -0.1854126936
76 1 33.1468044956 2.4258924101 -0.193661665
77 1 37.3485715777 1.6172628171 -0.2017920266
78 1 23.3426708679 8.0863068233 -0.1787163129
79 1 27.5444370922 7.2776772304 -0.1870909371
80 1 31.7462000285 6.4690440062 -0.1953428058
81 1 35.9479671011 5.6604144132 -0.203471671
82 1 30.345595123 10.5121992335 -0.1971439953
83 1 34.5473622051 9.7035660094 -0.2052759104
84 1 38.7491297257 8.8949364163 -0.2132801522
85 1 39.2129560635 0.0 -1.0773598942
86 1 42.0141156764 3.2345220032 -1.0869629505
87 1 39.6859507145 2.4258924101 0.6657245271
88 1 46.2158837592 2.4258924101 -1.0948088014
89 1 43.8877185018 1.6172628171 0.6577949107
90 1 50.4176522519 1.6172628171 -1.1025342795
91 1 48.0894829821 0.808629593 0.649984495
92 1 54.6194174565 0.808629593 -1.1101403283
93 1 52.2912515987 0.0 0.6422924221
94 1 40.6135146689 7.2776772304 -1.0887204418
95 1 44.8152790443 6.4690440062 -1.0965566
96 1 42.4871139299 5.6604144132 0.6560841486
97 1 49.0170476037 5.6604144132 -1.104267172
98 1 46.6888784482 4.8517848203 0.6482866184
99 1 53.218812875 4.8517848203 -1.1118528728
100 1 50.8906471315 4.0431515961 0.6406127014
101 1 57.4205823112 4.0431515961 -1.1193147409
102 1 55.0924125267 3.2345220032 0.6330614923
103 1 43.4146738719 10.5121992335 -1.0984399728
104 1 41.0865088814 9.7035660094 0.6542410811
105 1 47.6164424599 9.7035660094 -1.1061402899
106 1 45.2882734378 8.8949364163 0.646451852
107 1 51.8182077884 8.8949364163 -1.1137101982
108 1 49.4900421783 8.0863068233 0.6387915831
109 1 56.0199772913 8.0863068233 -1.1211504984
110 1 53.6918113573 7.2776772304 0.6312595975
111 1 57.8935772576 6.4690440062 0.6238549517
112 1 56.4929719232 10.5121992335 0.621926327
113 1 41.5503353337 0.808629593 -0.2098039311
114 1 45.7521032545 0.0 -0.2176978739
115 1 40.1497308951 4.8517848203 -0.2114774758
116 1 44.3514988541 4.0431515961 -0.2193604489
117 1 48.5532634964 3.2345220032 -0.2271210667
118 1 52.7550323035 2.4258924101 -0.2347601394
119 1 56.9568015397 1.6172628171 -0.2422787725
120 1 42.9508939676 8.0863068233 -0.2211566539
121 1 47.1526623935 7.2776772304 -0.2289056728
122 1 51.354427541 6.4690440062 -0.2365277237
123 1 55.5561968533 5.6604144132 -0.2440236832
124 1 49.9538222637 10.5121992335 -0.2384389453
125 1 54.1555916237 9.7035660094 -0.2459168536
126 1 58.3573577432 8.8949364163 -0.2532638577
127 1 58.8211867974 0.0 -1.1176282725
128 1 61.6223484403 3.2345220032 -1.1266541776
129 1 59.2941820773 2.4258924101 0.6256317331
130 1 65.8241187247 2.4258924101 -1.133872927
131 1 63.4959520283 1.6172628171 0.6183218606
132 1 70.025885702 1.6172628171 -1.1409731048
133 1 67.697718691 0.808629593 0.6111299307
134 1 74.2276568061 0.808629593 -1.1479572176
135 1 71.8994894806 0.0 0.6040535987
136 1 60.2217472517 7.2776772304 -1.1284623151
137 1 64.4235139336 6.4690440062 -1.1356471256
138 1 62.0953473419 5.6604144132 0.6165762541
139 1 68.6252847708 5.6604144132 -1.1427068456
140 1 66.2971141286 4.8517848203 0.6094218181
141 1 72.8270523295 4.8517848203 -1.1496437718
142 1 70.4988850611 4.0431515961 0.6023895465
143 1 77.0288240244 4.0431515961 -1.1564606017
144 1 74.700652696 3.2345220032 0.5954769331
145 1 63.0229085801 10.5121992335 -1.1375813925
146 1 60.6947420932 9.7035660094 0.6146742488
147 1 67.2246795412 9.7035660094 -1.1446051054
148 1 64.8965090038 8.8949364163 0.6075529128
149 1 71.4264472428 8.8949364163 -1.1514990577
150 1 69.0982800697 8.0863068233 0.6005604415
151 1 75.6282191284 8.0863068233 -1.158265756
152 1 73.3000478762 7.2776772304 0.5936945857
153 1 77.5018198381 6.4690440062 0.5869526195
154 1 76.1012145799 10.5121992335 0.5850478408
155 1 61.1585674685 0.808629593 -0.2496783575
156 1 65.3603375243 0.0 -0.2569607243
157 1 59.757962868 4.8517848203 -0.2513947142
158 1 63.9597330571 4.0431515961 -0.2586423797
159 1 68.1614999391 3.2345220032 -0.2657685859
160 1 72.363270967 2.4258924101 -0.2727756677
161 1 76.5650386781 1.6172628171 -0.2796663034
162 1 62.5591280277 8.0863068233 -0.2604812347
163 1 66.7608950431 7.2776772304 -0.2675706523
164 1 70.9626662234 6.4690440062 -0.2745341789
165 1 75.1644378422 5.6604144132 -0.2813743303
166 1 69.5620608985 10.5121992335 -0.2764609736
167 1 73.7638326793 9.7035660094 -0.2832548725
168 1 77.965601172 8.8949364163 -0.2899209171
169 1 78.42942832 0.0 -1.1548281915
170 1 81.2305924123 3.2345220032 -1.1631604802
171 1 78.9024244768 2.4258924101 0.5886810422
172 1 85.4323649174 2.4258924101 -1.1697470291
173 1 83.1041929218 1.6172628171 0.5819985191
174 1 89.6341340867 1.6172628171 -1.1762242607
175 1 87.3059654745 0.808629593 0.57542558
176 1 93.8359073543 0.808629593 -1.1825966926
177 1 91.507738399 0.0 0.568957984
178 1 79.8299877069 7.2776772304 -1.1649081453
179 1 84.0317604408 6.4690440062 -1.1714296185
180 1 81.7035922192 5.6604144132 0.5803313598
181 1 88.2335335939 5.6604144132 -1.1778340927
182 1 85.9053612933 4.8517848203 0.573827204
183 1 92.4353034113 4.8517848203 -1.1841259235
184 1 90.1071344942 4.0431515961 0.5674360347
185 1 96.6370773366 4.0431515961 -1.19031
186 1 94.3089043403 3.2345220032 0.5611532677
187 1 82.6311553255 10.5121992335 -1.1732963603
188 1 80.3029871708 9.7035660094 0.5784839178
189 1 86.8329287075 9.7035660094 -1.1796316224
190 1 84.5047564736 8.8949364163 0.5720449043
191 1 91.0346988013 8.8949364163 -1.1858460544
192 1 88.7065299222 8.0863068233 0.565726845
193 1 95.2364730315 8.0863068233 -1.1919444307
194 1 92.9083000638 7.2776772304 0.5595253082
195 1 97.1100743129 6.4690440062 0.5534353093
196 1 95.7094696552 10.5121992335 0.5516984329
197 1 80.7668105256 0.808629593 -0.2864436379
198 1 84.9685827352 0.0 -0.2931112169
199 1 79.3662061633 4.8517848203 -0.2880940327
200 1 83.5679786112 4.0431515961 -0.2946966789
201 1 87.7697477329 3.2345220032 -0.3011860907
202 1 91.9715209719 2.4258924101 -0.3075665952
203 1 96.173290837 1.6172628171 -0.3138429576
204 1 82.1673738487 8.0863068233 -0.2964623285
205 1 86.3691432181 7.2776772304 -0.3028827381
206 1 90.5709167145 6.4690440062 -0.3091863106
207 1 94.7726868846 5.6604144132 -0.3153777448
208 1 89.1703117899 10.5121992335 -0.3109975741
209 1 93.3720859724 9.7035660094 -0.3171071587
210 1 97.5738568477 8.8949364163 -0.3231012405
211 1 98.0376772289 0.0 -1.1888692619
212 1 100.8388478974 3.2345220032 -1.1963916691
213 1 98.5106782844 2.4258924101 0.554973823
214 1 105.0406225088 2.4258924101 -1.2023768112
215 1 102.7124488453 1.6172628171 0.548892192
216 1 109.2423937272 1.6172628171 -1.208271707
217 1 106.9142234472 0.808629593 0.5429023513
218 1 113.4441689677 0.808629593 -1.2140831519
219 1 111.1159946275 0.0 0.5369978581
220 1 99.4382439258 7.2776772304 -1.1979320032
221 1 103.6400188994 6.4690440062 -1.2038146139
222 1 101.3118452265 5.6604144132 0.547451368
223 1 107.8417905087 5.6604144132 -1.2095985723
224 1 105.5136201904 4.8517848203 0.5415674707
225 1 112.0435661684 4.8517848203 -1.2152907499
226 1 109.7153955071 4.0431515961 0.5357771363
227 1 116.2453421141 4.0431515961 -1.2208984664
228 1 113.9171673928 3.2345220032 0.5300733693
229 1 102.2394145753 10.5121992335 -1.2054568789
230 1 99.9112446097 9.7035660094 0.5458096654
231 1 106.4411902922 9.7035660094 -1.2111317106
232 1 104.1130162284 8.8949364163 0.540029729
233 1 110.6429626258 8.8949364163 -1.21670586
234 1 108.3147919359 8.0863068233 0.5343520762
235 1 114.8447390289 8.0863068233 -1.2221867418
236 1 112.5165642504 7.2776772304 0.5287696923
237 1 116.7183405963 6.4690440062 0.5232750005
238 1 115.317737168 10.5121992335 0.5218875294
239 1 100.3750647908 0.808629593 -0.3200204294
240 1 104.5768353421 0.0 -0.3261046909
241 1 98.9744611623 4.8517848203 -0.3214622064
242 1 103.1762357833 4.0431515961 -0.3274453471
243 1 107.3780070303 3.2345220032 -0.3333333522
244 1 111.5797823088 2.4258924101 -0.3391328742
245 1 115.7815541468 1.6172628171 -0.3448510134
246 1 101.7756318117 8.0863068233 -0.3289854619
247 1 105.97740344 7.2776772304 -0.334765932
248 1 110.1791791189 6.4690440062 -0.3404493795
249 1 114.3809513952 5.6604144132 -0.3460429811
250 1 108.7785751949 10.5121992335 -0.341975532
251 1 112.9803516267 9.7035660094 -0.3474456059
252 1 117.1821246656 8.8949364163 -0.3528245854
253 1 117.6459407484 0.0 -1.2198183512
254 1 120.4471146097 3.2345220032 -1.2264294987
255 1 118.1189432812 2.4258924101 0.5244487263
256 1 124.64889107 2.4258924101 -1.2318921102
257 1 122.3207157006 1.6172628171 0.5188953443
258 1 128.8506640135 1.6172628171 -1.2372949069
259 1 126.5224920656 0.808629593 0.5134049033
260 1 133.0524408647 0.808629593 -1.2426468478
261 1 130.7242648852 0.0 0.5079687776
262 1 119.0465120011 7.2776772304 -1.2275822666
263 1 123.2482889569 6.4690440062 -1.2329008976
264 1 120.9201135017 5.6604144132 0.5178599568
265 1 127.4500624438 5.6604144132 -1.2381515175
266 1 125.1218903719 4.8517848203 0.5125160122
267 1 131.6518398572 4.8517848203 -1.2433434187
268 1 129.3236637443 4.0431515961 0.507234265
269 1 135.8536137156 4.0431515961 -1.2484862749
270 1 133.5254410338 3.2345220032 0.5020053847
271 1 121.847686091 10.5121992335 -1.2341262322
272 1 119.519514286 9.7035660094 0.5166107192
273 1 126.049460121 9.7035660094 -1.2392237603
274 1 123.7212879444 8.8949364163 0.5114138811
275 1 130.2512380967 8.8949364163 -1.2442540112
276 1 127.9230655961 8.0863068233 0.5062877513
277 1 134.4530162821 8.0863068233 -1.249226992
278 1 132.1248397309 7.2776772304 0.5012227419
279 1 136.3266177639 6.4690440062 0.4962087696
280 1 134.9260162893 10.5121992335 0.4953801792
281 1 119.983329959 0.808629593 -0.3504952992
282 1 124.1851022926 0.0 -0.3560736993
283 1 118.582727684 4.8517848203 -0.3515544278
284 1 122.7845005132 4.0431515961 -0.3569918687
285 1 126.9862772785 3.2345220032 -0.3623638907
286 1 131.1880542631 2.4258924101 -0.3676794624
287 1 135.3898276831 1.6172628171 -0.3729478762
288 1 121.3839016977 8.0863068233 -0.3581208097
289 1 125.5856752798 7.2776772304 -0.3633430853
290 1 129.7874528172 6.4690440062 -0.368500695
291 1 133.9892268281 5.6604144132 -0.3736032934
292 1 128.3868506087 10.5121992335 -0.3695398377
293 1 132.5886251916 9.7035660094 -0.3744746195
294 1 136.790403701 8.8949364163 -0.3793562485
295 1 137.2542141322 0.0 -1.2479572252
296 1 140.0553914341 3.2345220032 -1.2535900456
297 1 137.7272184759 2.4258924101 0.4968197357
298 1 144.2571692668 2.4258924101 -1.2586649573
299 1 141.9289922962 1.6172628171 0.4916674155
300 1 148.4589434302 1.6172628171 -1.2637214176
301 1 146.1307699288 0.808629593 0.4865383026
302 1 152.6607213393 0.808629593 -1.2687699389
303 1 150.3325438825 0.0 0.4814221323
304 1 138.6547909031 7.2776772304 -1.2541531294
305 1 142.856569384 6.4690440062 -1.2590431358
306 1 140.5283922227 5.6604144132 0.4912354933
307 1 147.0583442051 5.6604144132 -1.2639079813
308 1 144.730170513 4.8517848203 0.4862922578
309 1 151.2601228289 4.8517848203 -1.268758788
310 1 148.9319451339 4.0431515961 0.4813682458
311 1 155.4618977262 4.0431515961 -1.2736067735
312 1 153.1337235194 3.2345220032 0.4764524968
313 1 141.4559687386 10.5121992335 -1.2596369085
314 1 139.1277913868 9.7035660094 0.490589092
315 1 145.6577442555 9.7035660094 -1.264305793
316 1 143.3295703442 8.8949364163 0.4858356511
317 1 149.8595235846 8.8949364163 -1.2689537862
318 1 147.5313456608 8.0863068233 0.4811084482
319 1 154.0612992158 8.0863068233 -1.273592811
320 1 151.7331247612 7.2776772304 0.4763958558
321 1 155.9349038806 6.4690440062 0.4716862085
322 1 154.5343051224 10.5121992335 0.471632503
323 1 139.5916049631 0.808629593 -0.3781787294
324 1 143.7933786024 0.0 -0.3833818482
325 1 138.191004699 4.8517848203 -0.378660907
326 1 142.3927789864 4.0431515961 -0.3836838287
327 1 146.5945570859 3.2345220032 -0.3886825997
328 1 150.7963314877 2.4258924101 -0.393667875
329 1 154.9981096445 1.6172628171 -0.3986504629
330 1 140.992182363 8.0863068233 -0.3841954944
331 1 145.1939574032 7.2776772304 -0.3890034224
332 1 149.3957362272 6.4690440062 -0.3937913454
333 1 153.5975113628 5.6604144132 -0.3985706432
334 1 147.9951364969 10.5121992335 -0.3941265118
335 1 152.1969123663 9.7035660094 -0.3986969632
336 1 156.3986919718 8.8949364163 -0.4032643646
337 1 156.8624955218 0.0 -1.2738211
338 1 159.6636763214 3.2345220032 -1.2784632128
339 1 157.3354981689 2.4258924101 0.4715339936
340 1 163.8654511138 2.4258924101 -1.2833392472
341 1 161.5372764973 1.6172628171 0.4666017374
342 1 168.067229528 1.6172628171 -1.2882459706
343 1 165.7390547304 0.808629593 0.4616448254
344 1 172.2690077992 0.808629593 -1.2931942002
345 1 169.9408291226 0.0 0.4566525163
346 1 158.2630785543 7.2776772304 -1.2782348285
347 1 162.4648578548 6.4690440062 -1.28289179
348 1 160.1366792258 5.6604144132 0.4669677739
349 1 166.6666333335 5.6604144132 -1.2875755234
350 1 164.3384582309 4.8517848203 0.4622288768
351 1 170.8684123862 4.8517848203 -1.2922977035
352 1 168.5402334046 4.0431515961 0.4574580328
353 1 175.07018756 4.0431515961 -1.2970697008
354 1 172.7420121333 3.2345220032 0.4526439193
355 1 161.0642601736 10.5121992335 -1.2826425144
356 1 158.7360812492 9.7035660094 0.467134628
357 1 165.2660364624 9.7035660094 -1.2870953949
358 1 162.9378610548 8.8949364163 0.4626211608
359 1 169.4678163538 8.8949364163 -1.2915830529
360 1 167.1396370291 8.0863068233 0.4580797685
361 1 173.6695923472 8.0863068233 -1.2961177546
362 1 171.3414165869 7.2776772304 0.4534982806
363 1 175.5431922371 6.4690440062 0.4488648408
364 1 174.1426006174 10.5121992335 0.4497770059
365 1 159.1998877632 0.808629593 -0.4036411422
366 1 163.4016620981 0.0 -0.4086506542
367 1 157.7992902249 4.8517848203 -0.4033528096
368 1 162.0010652938 4.0431515961 -0.4081493104
369 1 166.2028440128 3.2345220032 -0.4129714963
370 1 170.404618872 2.4258924101 -0.4178305661
371 1 174.6063972766 1.6172628171 -0.4227374514
372 1 160.6004678222 8.0863068233 -0.4078409251
373 1 164.8022473324 7.2776772304 -0.4124388155
374 1 169.0040267091 6.4690440062 -0.4170700346
375 1 173.2058022069 5.6604144132 -0.421746353
376 1 167.603430162 10.5121992335 -0.4164980682
377 1 171.805206508 9.7035660094 -0.420934899
378 1 176.0069863899 8.8949364163 -0.4254259405
379 1 176.4707821532 0.0 -1.2981945341
380 1 179.2719662314 3.2345220032 -1.3019025707
381 1 176.9437869638 2.4258924101 0.4477755381
382 1 183.4737409381 2.4258924101 -1.30680694
383 1 181.1455652923 1.6172628171 0.4428422621
384 1 187.6755190663 1.6172628171 -1.3117929873
385 1 185.3473396273 0.808629593 0.4378338747
386 1 191.8772931631 0.808629593 -1.3168703294
387 1 189.5491173743 0.0 0.4327406354
388 1 177.8713718668 7.2776772304 -1.3007114418
389 1 182.0731474027 6.4690440062 -1.3053756086
390 1 179.7449713947 5.6604144132 0.4441679552
391 1 186.2749263887 5.6604144132 -1.3101212915
392 1 183.9467502854 4.8517848203 0.4393965774
393 1 190.4767050506 4.8517848203 -1.3149589553
394 1 188.1485251541 4.0431515961 0.4345401285
395 1 194.6784796239 4.0431515961 -1.3198984739
396 1 192.3503034157 3.2345220032 0.4295886299
397 1 180.6725570315 10.5121992335 -1.3041083483
398 1 178.3443769062 9.7035660094 0.4453263555
399 1 184.8743331773 9.7035660094 -1.3086030592
400 1 182.5461566737 8.8949364163 0.4408021853
401 1 189.0761127066 8.8949364163 -1.3131901893
402 1 186.7479324097 8.0863068233 0.4361930394
403 1 193.2778881661 8.0863068233 -1.3178804797
404 1 190.9497115292 7.2776772304 0.4314880144
405 1 195.1514865599 6.4690440062 0.4266769413
406 1 193.7508988001 10.5121992335 0.4286873394
407 1 178.8081717641 0.808629593 -0.4277027505
408 1 183.0099497399 0.0 -0.4327367278
409 1 177.4075812405 4.8517848203 -0.4264792267
410 1 181.6093563094 4.0431515961 -0.4312797208
411 1 185.8111348092 3.2345220032 -0.4361584429
412 1 190.0129092967 2.4258924101 -0.4411254861
413 1 194.2146871581 1.6172628171 -0.4461903619
414 1 180.2087622974 8.0863068233 -0.4299831441
415 1 184.4105416742 7.2776772304 -0.4346180325
416 1 188.6123170098 6.4690440062 -0.439341547
417 1 192.8140957195 5.6604144132 -0.4441640571
418 1 187.2117279253 10.5121992335 -0.437707164
419 1 191.4135038043 9.7035660094 -0.4422761
420 1 195.615283019 8.8949364163 -0.4469555826
421 1 196.0790706242 0.0 -1.3220480489
422 1 198.8802575329 3.2345220032 -1.3249490442
423 1 196.5520775696 2.4258924101 0.4245327224
424 1 203.0820312961 2.4258924101 -1.3301191867
425 1 200.7538550688 1.6172628171 0.4193636378
426 1 207.2838083377 1.6172628171 -1.3354167168
427 1 204.9556284126 0.808629593 0.4140733797
428 1 211.4855811764 0.808629593 -1.3408486965
429 1 209.1574050159 0.0 0.4086545713
430 1 197.4796669425 7.2776772304 -1.3226839854
431 1 201.6814415634 6.4690440062 -1.3276099989
432 1 199.3532649073 5.6604144132 0.4217502606
433 1 205.8832194534 5.6604144132 -1.3326670597
434 1 203.5550390899 4.8517848203 0.4166991947
435 1 210.0849931212 4.8517848203 -1.3378629161
436 1 207.7568165223 4.0431515961 0.4115157282
437 1 214.2867700105 4.0431515961 -1.3432044971
438 1 211.9585934783 3.2345220032 0.4061925891
439 1 200.2808514114 10.5121992335 -1.3252179531
440 1 197.9526743169 9.7035660094 0.4240146617
441 1 204.4826301973 9.7035660094 -1.330022736
442 1 202.1544530932 8.8949364163 0.4192143963
443 1 208.6844084684 8.8949364163 -1.3349707939
444 1 206.3562276856 8.0863068233 0.4142777752
445 1 212.8861824699 8.0863068233 -1.3400697136
446 1 210.5580054897 7.2776772304 0.40919684
447 1 214.7597790241 6.4690440062 0.4039645192
448 1 213.3591915788 10.5121992335 0.4071235011
449 1 198.4164609117 0.808629593 -0.4513619818
450 1 202.6182379916 0.0 -0.4566486088
451 1 197.0158740478 4.8517848203 -0.4490952648
452 1 201.2176482399 4.0431515961 -0.4541441863
453 1 205.4194257105 3.2345220032 -0.4593191133
454 1 209.6211989876 2.4258924101 -0.464627575
455 1 213.8229755052 1.6172628171 -0.4700763574
456 1 199.8170580879 8.0863068233 -0.4517554381
457 1 204.0188364163 7.2776772304 -0.4566847397
458 1 208.2206105511 6.4690440062 -0.4617517409
459 1 212.4223878883 5.6604144132 -0.4669638662
460 1 206.8200217524 10.5121992335 -0.4589757409
461 1 211.0217999665 9.7035660094 -0.4639393912
462 1 215.2235776277 8.8949364163 -0.469060403
463 1 215.6873572556 0.0 -1.3464214734
464 1 218.4885463564 3.2345220032 -1.3486979309
465 1 216.160366193 2.4258924101 0.4007233347
466 1 222.6903184327 2.4258924101 -1.3543485546
467 1 220.3621420911 1.6172628171 0.3951022753
468 1 226.8920936731 1.6172628171 -1.360160924
469 1 224.5639137194 0.808629593 0.3893244643
470 1 231.0938645865 0.808629593 -1.3661388323
471 1 228.7656885118 0.0 0.3833857653
472 1 217.0879596641 7.2776772304 -1.345326233
473 1 221.2897325504 6.4690440062 -1.350746185
474 1 218.9615557514 5.6604144132 0.3985745507
475 1 225.4915085723 5.6604144132 -1.3563346018
476 1 223.1633281707 4.8517848203 0.3930215501
477 1 229.6932802483 4.8517848203 -1.3620956102
478 1 227.365103716 4.0431515961 0.3873009424
479 1 233.8950550503 4.0431515961 -1.3680326222
480 1 231.5668749441 3.2345220032 0.3814089629
481 1 219.8891464394 10.5121992335 -1.3472083192
482 1 217.5609691543 9.7035660094 0.4019762704
483 1 224.0909232715 9.7035660094 -1.352561499
484 1 221.7627461293 8.8949364163 0.3966593358
485 1 228.292695767 8.8949364163 -1.3580948093
486 1 225.9645187583 8.0863068233 0.3911677128
487 1 232.4944713315 8.0863068233 -1.3638119478
488 1 230.1662944944 7.2776772304 0.3854972176
489 1 234.3680658558 6.4690440062 0.3796445619
490 1 232.9674823181 10.5121992335 0.3839164352
491 1 218.0247477719 0.808629593 -0.4756714744
492 1 222.2265232316 0.0 -0.4814182152
493 1 216.6241609652 4.8517848203 -0.4723277014
494 1 220.8259372255 4.0431515961 -0.4778490507
495 1 225.0277129138 3.2345220032 -0.4835328507
496 1 229.2294842752 2.4258924101 -0.4893832763
497 1 233.4312587817 1.6172628171 -0.4954037582
498 1 219.4253509906 8.0863068233 -0.4743450952
499 1 223.627127489 7.2776772304 -0.4797989478
500 1 227.828899632 6.4690440062 -0.4854265264
501 1 232.0306748915 5.6604144132 -0.4912315762
502 1 226.4283148267 10.5121992335 -0.4815168104
503 1 230.6300908867 9.7035660094 -0.4870956775
504 1 234.8318625436 8.8949364163 -0.4928631573
505 1 235.2956386452 0.0 -1.3722853483
506 1 238.0968254873 3.2345220032 -1.3741482016
507 1 235.768649279 2.4258924101 0.3753425906
508 1 242.2985990121 2.4258924101 -1.3804442544
509 1 239.9704230041 1.6172628171 0.3690995381
510 1 246.500371908 1.6172628171 -1.3869219816
511 1 244.1721923545 0.808629593 0.362678204
512 1 250.7021404293 0.808629593 -1.3935819646
513 1 248.3739648215 0.0 0.3560776259
514 1 236.6962462384 7.2776772304 -1.3697157739
515 1 240.8980167611 6.4690440062 -1.3758083653
516 1 238.569840286 5.6604144132 0.3736072106
517 1 245.0997903431 5.6604144132 -1.382091056
518 1 242.7716103513 4.8517848203 0.3673834291
519 1 249.3015595221 4.8517848203 -1.3885644659
520 1 246.9733834759 4.0431515961 0.3609721499
521 1 253.5033317507 4.0431515961 -1.3952286232
522 1 251.1751522164 3.2345220032 0.3543729539
523 1 239.4974344624 10.5121992335 -1.3711863337
524 1 237.1692575204 9.7035660094 0.3780949163
525 1 243.6992087593 9.7035660094 -1.3772646003
526 1 241.37102831 8.8949364163 0.3720782467
527 1 247.9009786148 8.8949364163 -1.3835426592
528 1 245.5728021303 8.0863068233 0.3658652349
529 1 252.1027515107 8.0863068233 -1.3900205389
530 1 249.7745752549 7.2776772304 0.3594554425
531 1 253.9763439667 6.4690440062 0.3528490603
532 1 252.5757639744 10.5121992335 0.3581278624
533 1 237.6330289423 0.808629593 -0.5015969461
534 1 241.8348022289 0.0 -0.5079648605
535 1 236.2324457953 4.8517848203 -0.4972170423
536 1 240.4342197682 4.0431515961 -0.5033851072
537 1 244.635989376 3.2345220032 -0.5097372483
538 1 248.8377620621 2.4258924101 -0.5162742757
539 1 253.0395303642 1.6172628171 -0.5229963893
540 1 239.0336372598 8.0863068233 -0.49882168
541 1 243.2354112994 7.2776772304 -0.5049728566
542 1 247.4371809357 6.4690440062 -0.5113175637
543 1 251.6389536124 5.6604144132 -0.5178560301
544 1 246.0365998093 10.5121992335 -0.5063593555
545 1 250.2383731722 9.7035660094 -0.5127056066
546 1 254.4401420842 8.8949364163 -0.519254471
547 1 254.9039120384 0.0 -1.4004242128
548 1 257.7050995953 3.2345220032 -1.4020829374
549 1 255.3769240162 2.4258924101 0.3475860314
550 1 261.9068704993 2.4258924101 -1.4091263312
551 1 259.5786914414 1.6172628171 0.3406121259
552 1 266.1086370096 1.6172628171 -1.4163572227
553 1 263.7804619356 0.808629593 0.3334524384
554 1 270.3104066078 0.808629593 -1.4237736675
555 1 267.9822317721 0.0 0.3261086176
556 1 256.3045199747 7.2776772304 -1.3966975914
557 1 260.5062914696 6.4690440062 -1.4035726539
558 1 258.1781157189 5.6604144132 0.3460468982
559 1 264.7080622687 5.6604144132 -1.4106439917
560 1 262.3798830584 4.8517848203 0.3390502906
561 1 268.9098286742 4.8517848203 -1.4179094511
562 1 266.5816534476 4.0431515961 0.3318610387
563 1 273.1115981104 4.0431515961 -1.4253664872
564 1 270.7834194433 3.2345220032 0.324481392
565 1 259.1057125448 10.5121992335 -1.3979900507
566 1 256.7775363557 9.7035660094 0.3515051637
567 1 263.3074839348 9.7035660094 -1.4048950016
568 1 260.9793042956 8.8949364163 0.3446787363
569 1 267.5092508835 8.8949364163 -1.4120032709
570 1 265.1810752567 8.0863068233 0.3376505344
571 1 271.7110208439 8.0863068233 -1.419312076
572 1 269.382841786 7.2776772304 0.3304230073
573 1 273.5846113462 6.4690440062 0.3229989951
574 1 272.1840343657 10.5121992335 0.3291355896
575 1 257.2413017448 0.808629593 -0.5299032366
576 1 261.4430724867 0.0 -0.536993941
577 1 255.8407218859 4.8517848203 -0.5245878555
578 1 260.0424932092 4.0431515961 -0.5315120965
579 1 264.2442601293 3.2345220032 -0.5386272947
580 1 268.4460301087 2.4258924101 -0.5459315536
581 1 272.6477957137 1.6172628171 -0.5534225667
582 1 258.641914008 8.0863068233 -0.5260049195
583 1 262.843681519 7.2776772304 -0.5329553413
584 1 267.0454520513 6.4690440062 -0.5401036872
585 1 271.2472218877 5.6604144132 -0.5474474414
586 1 265.6448741366 10.5121992335 -0.5342349819
587 1 269.8466445164 9.7035660094 -0.5414255203
588 1 274.0484104644 8.8949364163 -0.5488175666
589 1 274.5121755484 0.0 -1.4313732926
590 1 277.313363172 3.2345220032 -1.4330121837
591 1 274.9851884983 2.4258924101 0.3169139141
592 1 281.5151313026 2.4258924101 -1.4408433574
593 1 279.1869531787 1.6172628171 0.3091615594
594 1 285.7168950776 1.6172628171 -1.4488565675
595 1 283.3887209566 0.808629593 0.3012275017
596 1 289.9186619309 0.808629593 -1.457048183
597 1 287.5904843789 0.0 0.2931151531
598 1 275.9127864012 7.2776772304 -1.4268182238
599 1 280.1145549986 6.4690440062 -1.4345182739
600 1 277.7863802296 5.6604144132 0.3153816715
601 1 284.3163191835 5.6604144132 -1.4424084617
602 1 281.9881447194 4.8517848203 0.3075745248
603 1 288.5180864562 4.8517848203 -1.4504848605
604 1 286.1899122781 4.0431515961 0.2995812434
605 1 292.7198530904 4.0431515961 -1.4587433053
606 1 290.3916754717 3.2345220032 0.2914057538
607 1 278.7139788853 10.5121992335 -1.4281322417
608 1 276.3858037447 9.7035660094 0.3216583866
609 1 282.9157472637 9.7035660094 -1.4358951755
610 1 280.5875686919 8.8949364163 0.3139826779
611 1 287.1175112293 8.8949364163 -1.4438525928
612 1 284.789336689 8.0863068233 0.306112476
613 1 291.3192782352 8.0863068233 -1.452000024
614 1 288.9911002924 7.2776772304 0.2980520507
615 1 293.1928669552 6.4690440062 0.2898058051
616 1 291.792292424 10.5121992335 0.296635673
617 1 276.8495643874 0.808629593 -0.5610977131
618 1 281.0513287152 0.0 -0.5689540573
619 1 275.4489873401 4.8517848203 -0.5549837158
620 1 279.6507558423 4.0431515961 -0.5627093464
621 1 283.8525199699 3.2345220032 -0.570620864
622 1 288.0542871664 2.4258924101 -0.57871458
623 1 292.2560500265 1.6172628171 -0.5869866442
624 1 278.2501794527 8.0863068233 -0.5564076704
625 1 282.4519440091 7.2776772304 -0.5641920387
626 1 286.6537116441 6.4690440062 -0.5721666973
627 1 290.8554748948 5.6604144132 -0.5803274333
628 1 285.25313636 10.5121992335 -0.5655496501
629 1 289.454903728 9.7035660094 -0.5735955982
630 1 293.656666712 8.8949364163 -0.5818311598
631 1 294.1204244574 0.0 -1.4654143534
632 1 296.9216153595 3.2345220032 -1.467179536
633 1 294.5934417723 2.4258924101 0.2830521163
634 1 301.1233807548 2.4258924101 -1.4757892065
635 1 298.7952037174 1.6172628171 0.2745245242
636 1 305.3251418325 1.6172628171 -1.4845678661
637 1 302.9969688076 0.808629593 0.265827257
638 1 309.5269060459 0.808629593 -1.4935110541
639 1 307.1987295899 0.0 0.2569646701
640 1 295.5210408855 7.2776772304 -1.4603328464
641 1 299.7228066238 6.4690440062 -1.4688463331
642 1 297.3946292719 5.6604144132 0.281378276
643 1 303.9245680066 5.6604144132 -1.4775356994
644 1 301.5963946863 4.8517848203 0.2727740761