# LAMMPS data file written by OVITO Basic 3.3.0
74970 atoms
1 atom types
0.0 345.7507034011 xlo xhi
0.0 346.2760574986 ylo yhi
0.0 7.4840661007 zlo zhi
0.0 0.0270001331 0.0 xy xz yz

Masses

1 1.008  # H

Atoms  # atomic

1 1 -0.0033781472 0.0 -0.9363759597
2 1 3.5246500174 2.0369169706 -0.9473739753
3 1 2.3546462998 0.0 0.7209839155
4 1 5.882674673 2.0369169706 0.7100427849
5 1 1.1756255422 2.0369169706 -0.1100640181
6 1 4.7036708475 0.0 -0.1163073946
7 1 7.0526955223 0.0 -0.9535607662
8 1 10.580724313 2.0369169706 -0.9643843974
9 1 9.4107203867 0.0 0.7039128698
10 1 12.9387528523 2.0369169706 0.6931498712
11 1 8.2316994204 2.0369169706 -0.1271903971
12 1 11.7597488091 0.0 -0.133263164
13 1 14.1087739103 0.0 -0.9703997621
14 1 17.6368033543 2.0369169706 -0.9810375574
15 1 16.4667991921 0.0 0.6871921629
16 1 19.9948288811 2.0369169706 0.6766189382
17 1 15.2877780262 2.0369169706 -0.1439642052
18 1 18.8158245837 0.0 -0.1498640848
19 1 21.1648501206 0.0 -0.9868794269
20 1 24.6928802905 2.0369169706 -0.9973194903
21 1 23.522875847 0.0 0.6708352423
22 1 27.0509062709 2.0369169706 0.6604637874
23 1 22.3438545177 2.0369169706 -0.1603714049
24 1 25.8719016923 0.0 -0.1660968275
25 1 28.2209276828 0.0 -1.002986558
26 1 31.7489586059 2.0369169706 -1.0132166396
27 1 30.5789538629 0.0 0.6548551202
28 1 34.1069885154 2.0369169706 0.644697794
29 1 29.3999323613 2.0369169706 -0.1763982945
30 1 32.9279836373 0.0 -0.1819485614
31 1 35.2770100906 0.0 -1.0187085425
32 1 38.8050418212 2.0369169706 -1.028716102
33 1 37.6350367516 0.0 0.6392642098
34 1 41.1630687545 2.0369169706 0.6293336342
35 1 36.4560150866 2.0369169706 -0.1920317075
36 1 39.9840635316 0.0 -0.1974071091
37 1 42.3330904749 0.0 -1.0340334844
38 1 45.8611230585 2.0369169706 -1.0438058454
39 1 44.6911176168 0.0 0.6240740625
40 1 48.2191504998 2.0369169706 0.614382932
41 1 43.5120958248 2.0369169706 -0.2072592761
42 1 47.0401448868 0.0 -0.2124613004
43 1 49.3891723201 0.0 -1.0489506309
44 1 52.917205802 2.0369169706 -1.0584750626
45 1 51.7471999702 0.0 0.6092950043
46 1 55.2752372087 2.0369169706 0.5998560135
47 1 50.5681780602 2.0369169706 -0.2220697848
48 1 54.0962312055 0.0 -0.2271012902
49 1 56.4452591469 0.0 -1.0634506177
50 1 59.9732935544 2.0369169706 -1.0727145798
51 1 58.8032872961 0.0 0.5949358553
52 1 62.3313220302 2.0369169706 0.5857614628
53 1 57.6242652953 2.0369169706 -0.2364534518
54 1 61.1523155823 0.0 -0.2413188301
55 1 63.5013440319 0.0 -1.0775258589
56 1 67.0293794375 2.0369169706 -1.0865171559
57 1 65.8593727074 0.0 0.5810035026
58 1 69.3874084396 2.0369169706 0.5721057134
59 1 64.6803506431 2.0369169706 -0.2504023282
60 1 68.2084015018 0.0 -0.255107768
61 1 70.5574304776 0.0 -1.0911709917
62 1 74.0854668995 2.0369169706 -1.0998780361
63 1 72.9154596612 0.0 0.5675025105
64 1 76.4434998942 2.0369169706 0.5588926307
65 1 71.7364375788 2.0369169706 -0.2639107973
66 1 75.2644889819 0.0 -0.2684644379
67 1 77.6135219413 0.0 -1.1043832486
68 1 81.1415594248 2.0369169706 -1.1127953694
69 1 79.9715516512 0.0 0.5544346212
70 1 83.4995894977 2.0369169706 0.5461229952
71 1 78.7925295688 2.0369169706 -0.2769760008
72 1 82.3205814891 0.0 -0.2813880957
73 1 84.6696115085 0.0 -1.1171629654
74 1 88.19765009 2.0369169706 -1.1252706801
75 1 87.0276417356 0.0 0.5417984191
76 1 90.5556806891 2.0369169706 0.5337940211
77 1 85.8486196986 2.0369169706 -0.289598247
78 1 89.3766720907 0.0 -0.293881373
79 1 91.7257026092 0.0 -1.1295140165
80 1 95.2537423249 2.0369169706 -1.1373093855
81 1 94.0837333535 0.0 0.5295887139
82 1 97.6117769076 2.0369169706 0.5218988939
83 1 92.9047114254 2.0369169706 -0.3017816285
84 1 96.4327642077 0.0 -0.3059507577
85 1 98.7817987097 0.0 -1.1414443056
86 1 102.3098395597 2.0369169706 -1.1489212764
87 1 101.139829944 0.0 0.5177961865
88 1 104.6678711842 2.0369169706 0.5104263072
89 1 99.9608081519 2.0369169706 -0.3135344208
90 1 103.4888612972 0.0 -0.3176070568
91 1 105.8378928048 0.0 -1.1529660825
92 1 109.3659348344 2.0369169706 -1.1601208804
93 1 108.19592452 0.0 0.5064070355
94 1 111.7239669307 2.0369169706 0.4993600187
95 1 107.0169029185 2.0369169706 -0.3248695179
96 1 110.5449563451 0.0 -0.3288656691
97 1 112.8939883154 0.0 -1.1640964154
98 1 116.4220315156 2.0369169706 -1.1709278698
99 1 115.2520204844 0.0 0.4954025229
100 1 118.7800640657 2.0369169706 0.4886786137
101 1 114.072999146 2.0369169706 -0.3358048593
102 1 117.6010527541 0.0 -0.3397469928
103 1 119.9500886263 0.0 -1.1748573995
104 1 123.4781329698 2.0369169706 -1.1813672708
105 1 122.3081212217 0.0 0.4847588567
106 1 125.8361659463 2.0369169706 0.4783552421
107 1 121.1291001828 2.0369169706 -0.3463636835
108 1 124.6571538997 0.0 -0.3502765805
109 1 127.0061867139 0.0 -1.1852763115
110 1 130.5342322008 2.0369169706 -1.191469554
111 1 129.3642196905 0.0 0.474447009
112 1 132.8922655584 2.0369169706 0.4683576186
113 1 128.1851990055 2.0369169706 -0.3565746099
114 1 131.7132527406 0.0 -0.3604851568
115 1 134.0622859087 0.0 -1.1953856089
116 1 137.5903325116 2.0369169706 -1.2012706072
117 1 136.4203192209 0.0 0.4644328164
118 1 139.9483661959 2.0369169706 0.458648095
119 1 135.2412989806 2.0369169706 -0.3664717659
120 1 138.7693526068 0.0 -0.3704086002
121 1 141.1183895496 0.0 -1.2052228038
122 1 144.6464372142 2.0369169706 -1.2108114629
123 1 143.4764231613 0.0 0.4546771515
124 1 147.0044711707 2.0369169706 0.4491840146
125 1 142.2974033838 2.0369169706 -0.3760944964
126 1 145.8254568194 0.0 -0.3800875624
127 1 148.1744905592 0.0 -1.2148300994
128 1 151.7025392491 2.0369169706 -1.2201378542
129 1 150.5325244068 0.0 0.4451363956
130 1 154.0605734234 2.0369169706 0.4399182377
131 1 149.3535051736 2.0369169706 -0.3854870192
132 1 152.8815582917 0.0 -0.389567105
133 1 155.2305922311 0.0 -1.2242538278
134 1 158.7586418647 2.0369169706 -1.2292995613
135 1 157.5886262602 0.0 0.4357629192
136 1 161.1166761933 2.0369169706 0.4307997774
137 1 156.4096076168 2.0369169706 -0.3946978802
138 1 159.9376602994 0.0 -0.3988959645
139 1 162.2866978411 0.0 -1.2335438323
140 1 165.8147483368 2.0369169706 -1.2383496125
141 1 164.6447319973 0.0 0.4265059441
142 1 168.1727827561 2.0369169706 0.4217747522
143 1 163.46571398 2.0369169706 -0.4037790916
144 1 166.9937661363 0.0 -0.4081258265
145 1 169.3428002934 0.0 -1.2427525246
146 1 172.8708515695 2.0369169706 -1.2473432325
147 1 171.7008344949 0.0 0.4173123963
148 1 175.228886016 2.0369169706 0.4127874206
149 1 170.5218171582 2.0369169706 -0.4127852882
150 1 174.0498686702 0.0 -0.4173102548
151 1 176.3989028364 0.0 -1.2519339222
152 1 179.926954784 2.0369169706 -1.2563368525
153 1 178.7569370289 0.0 0.4081279679
154 1 182.2849891851 2.0369169706 0.403781224
155 1 177.577920409 2.0369169706 -0.4217726289
156 1 181.1059711679 0.0 -0.4265037935
157 1 183.4550052797 0.0 -1.2611425964
158 1 186.9830612651 2.0369169706 -1.2653868947
159 1 185.8130428658 0.0 0.3988981241
160 1 189.3410955483 2.0369169706 0.3947000216
161 1 184.6340269719 2.0369169706 -0.4307976359
162 1 188.162076905 0.0 -0.4357607596
163 1 190.5111108988 0.0 -1.2704325919
164 1 194.0391638807 2.0369169706 -1.2745485836
165 1 192.8691448825 0.0 0.3895692737
166 1 196.3971980006 2.0369169706 0.3854891788
167 1 191.6901297417 2.0369169706 -0.4399160871
168 1 195.2181787584 0.0 -0.4451342178
169 1 197.5672125707 0.0 -1.2798563202
170 1 201.0952659065 2.0369169706 -1.2838749568
171 1 199.9252463457 0.0 0.3800897493
172 1 203.4532997814 2.0369169706 0.3760966742
173 1 198.7462319944 2.0369169706 -0.449181855
174 1 202.2742800038 0.0 -0.4546749647
175 1 204.6233135711 0.0 -1.2894635795
176 1 208.1513706092 2.0369169706 -1.2934157943
177 1 206.9813505584 0.0 0.3704108052
178 1 210.5094041846 2.0369169706 0.3664739709
179 1 205.8023369693 2.0369169706 -0.4586459082
180 1 209.3303839442 0.0 -0.4644305932
181 1 211.6794172212 0.0 -1.2993007563
182 1 215.20747092 2.0369169706 -1.3032168202
183 1 214.0374504336 0.0 0.360487398
184 1 217.5655041597 2.0369169706 0.3565768511
185 1 212.8584376158 2.0369169706 -0.4683554045
186 1 216.3864834838 0.0 -0.4744447587
187 1 218.7355164159 0.0 -1.3094100265
188 1 222.263570151 2.0369169706 -1.3133190671
189 1 221.0935492654 0.0 0.3502788581
190 1 224.6216029914 2.0369169706 0.346365952
191 1 219.9145372189 2.0369169706 -0.4783529917
192 1 223.4425819435 0.0 -0.48475657
193 1 225.7916144945 0.0 -1.3198289021
194 1 229.3196716142 2.0369169706 -1.3237584319
195 1 228.149650411 0.0 0.3397492976
196 1 231.6777040191 2.0369169706 0.3358071822
197 1 226.9706390995 2.0369169706 -0.488676327
198 1 230.4986826808 0.0 -0.495400209
199 1 232.8477148053 0.0 -1.3305898591
200 1 236.3757682955 2.0369169706 -1.3345653759
201 1 235.2057468291 0.0 0.3288680102
202 1 238.7338002466 2.0369169706 0.3248718681
203 1 234.0267362344 2.0369169706 -0.4993577049
204 1 237.5547786451 0.0 -0.5064046762
205 1 239.903810316 0.0 -1.3417201466
206 1 243.4318635611 2.0369169706 -1.3457649345
207 1 242.261841877 0.0 0.3176094433
208 1 245.7898950223 2.0369169706 0.3135368072
209 1 241.0828319901 2.0369169706 -0.5104239389
210 1 244.6108732303 0.0 -0.517793791
211 1 246.9599044202 0.0 -1.3532418781
212 1 250.4879607958 2.0369169706 -1.35737678
213 1 249.3179389575 0.0 0.3059531804
214 1 252.8459917489 2.0369169706 0.3017840604
215 1 248.1389262667 2.0369169706 -0.5218964892
216 1 251.6669698207 0.0 -0.529586273
217 1 254.0160005116 0.0 -1.3651721127
218 1 257.5440530308 2.0369169706 -1.3694154491
219 1 256.3740310835 0.0 0.2938838412
220 1 259.9020834666 2.0369169706 0.2896007242
221 1 255.195022476 2.0369169706 -0.5337915711
222 1 258.7230614386 0.0 -0.5417959328
223 1 261.0720916214 0.0 -1.3775231367
224 1 264.600143705 2.0369169706 -1.3818907054
225 1 263.4301216761 0.0 0.2813906002
226 1 266.9581735964 2.0369169706 0.2769785233
227 1 262.2511136765 2.0369169706 -0.5461204998
228 1 265.779151514 0.0 -0.5544320986
229 1 268.1281811795 0.0 -1.3903027989
230 1 271.6562362212 2.0369169706 -1.3948080024
231 1 270.4862141832 0.0 0.2684669968
232 1 274.0142655863 2.0369169706 0.2639133834
233 1 269.3072032709 2.0369169706 -0.55889009
234 1 272.8352435039 0.0 -0.5674999426
235 1 275.1842726522 0.0 -1.4035150196
236 1 278.7123236923 2.0369169706 -1.4081688282
237 1 277.5423016634 0.0 0.2551103722
238 1 281.0703525311 2.0369169706 0.2504049506
239 1 276.3632947255 2.0369169706 -0.5721031273
240 1 279.8913304669 0.0 -0.5810008893
241 1 282.2403590889 0.0 -1.4171601071
242 1 285.7684095755 2.0369169706 -1.421971368
243 1 284.5983875919 0.0 0.2413214707
244 1 288.1264378698 2.0369169706 0.2364561105
245 1 283.419381135 2.0369169706 -0.5857588313
246 1 286.9474158691 0.0 -0.5949331966
247 1 289.2964439829 0.0 -1.4312353029
248 1 292.8244973279 2.0369169706 -1.4362108307
249 1 291.6544719597 0.0 0.2271039761
250 1 295.182525105 2.0369169706 0.2220724979
251 1 290.4754659564 2.0369169706 -0.5998533367
252 1 294.0035032041 0.0 -0.6092923002
253 1 296.3525308007 0.0 -1.4457352443
254 1 299.8805800714 2.0369169706 -1.4508800116
255 1 298.7105582784 0.0 0.2124640408
256 1 302.2386073403 2.0369169706 0.2072620437
257 1 297.5315526744 2.0369169706 -0.6143802098
258 1 301.0595855483 0.0 -0.624071313
259 1 303.408612655 0.0 -1.4606523545
260 1 306.9366613086 2.0369169706 -1.4659697187
261 1 305.7666396336 0.0 0.1974098857
262 1 309.2946880876 2.0369169706 0.1920345023
263 1 304.5876344107 2.0369169706 -0.6293308666
264 1 308.1156664135 0.0 -0.639261415
265 1 310.4646930302 0.0 -1.475977251
266 1 313.9927445149 2.0369169706 -1.4814691357
267 1 312.8227195369 0.0 0.1819513834
268 1 316.3507708039 2.0369169706 0.1764011256
269 1 311.6437146498 2.0369169706 -0.6446949901
270 1 315.1717493022 0.0 -0.6548522891
271 1 317.520775447 0.0 -1.4916991992
272 1 321.0488228303 2.0369169706 -1.4973662487
273 1 319.8788014819 0.0 0.1660996859
274 1 323.4068486565 2.0369169706 0.1603742814
275 1 318.6997968942 2.0369169706 -0.6604609382
276 1 322.2278273182 0.0 -0.6708323658
277 1 324.5768530093 0.0 -1.507806294
278 1 328.1048997665 2.0369169706 -1.5136481363
279 1 326.9348785905 0.0 0.1498669795
280 1 330.462925139 2.0369169706 0.1439671179
281 1 325.7558742932 2.0369169706 -0.6766160527
282 1 329.2839039731 0.0 -0.6871892501
283 1 331.6329292195 0.0 -1.5242859135
284 1 335.1609788169 2.0369169706 -1.5303012509
285 1 333.9909543652 0.0 0.1332660949
286 1 337.5190037538 2.0369169706 0.1271933552
287 1 332.8119503219 2.0369169706 -0.6931469494
288 1 336.3399827875 0.0 -0.7039099208
289 1 338.6890076075 0.0 -1.5411248639
290 1 342.2170531125 2.0369169706 -1.5473116458
291 1 341.0470323267 0.0 0.1163103618
292 1 344.575077632 2.0369169706 0.1100670034
293 1 339.8680285012 2.0369169706 -0.7100398177
294 1 343.3960568654 0.0 -0.7209809392
295 1 -0.0033952971 4.0738373984 -0.9411304354
296 1 3.5246326497 6.1107543599 -0.9521865792
297 1 2.3546291499 4.0738373984 0.7162288227
298 1 5.8826573053 6.1107543599 0.7052301265
299 1 1.1756081836 6.1107543599 -0.114875642
300 1 4.7036536886 4.0738373984 -0.121062197
301 1 7.0526783724 4.0738373984 -0.9583143527
302 1 10.5807069635 6.1107543599 -0.9691942428
303 1 9.4107032459 4.0738373984 0.6991614793
304 1 12.9387355119 6.1107543599 0.6883429931
305 1 8.2316820618 6.1107543599 -0.132002148
306 1 11.7597316773 4.0738373984 -0.1380113333
307 1 14.1087567967 4.0738373984 -0.9751436484
308 1 17.6367860502 6.1107543599 -0.9858352436
309 1 16.4667820966 4.0738373984 0.6824536665
310 1 19.9948115951 6.1107543599 0.6718275857
311 1 15.2877607039 6.1107543599 -0.1487670636
312 1 18.8158075155 4.0738373984 -0.1545960389
313 1 21.1648330796 4.0738373984 -0.9916036589
314 1 24.692863068 6.1107543599 -1.0020944371
315 1 23.5228588422 4.0738373984 0.6661199572
316 1 27.0508890847 6.1107543599 0.6556989855
317 1 22.3438372589 6.1107543599 -0.1651551806
318 1 25.8718847148 4.0738373984 -0.170801868
319 1 28.2209107507 4.0738373984 -1.0076800291
320 1 31.7489415104 6.1107543599 -1.0179570053
321 1 30.5789369852 4.0738373984 0.6501745886
322 1 34.1069714653 6.1107543599 0.6399718106
323 1 29.3999152114 6.1107543599 -0.1811515815
324 1 32.9279667959 4.0738373984 -0.1866147197
325 1 35.2769933128 4.0738373984 -1.0233588576
326 1 38.8050248891 6.1107543599 -1.0334087021
327 1 37.6350200373 4.0738373984 0.6346312442
328 1 41.1630518949 6.1107543599 0.624660135
329 1 36.455998091 6.1107543599 -0.1967417841
330 1 39.9840468898 4.0738373984 -0.2020211281
331 1 42.3330738967 4.0738373984 -1.0386269326
332 1 45.8611063532 6.1107543599 -1.0484360525
333 1 44.6911011293 4.0738373984 0.6195028546
334 1 48.2191338763 6.1107543599 0.6097770069
335 1 43.5120790379 6.1107543599 -0.2119119958
336 1 47.040128481 4.0738373984 -0.2170085347
337 1 49.3891560141 4.0738373984 -1.053472104
338 1 52.917189378 6.1107543599 -1.0630268248
339 1 51.7471837549 4.0738373984 0.6048011162
340 1 55.2752209027 6.1107543599 0.5953342137
341 1 50.5681615364 6.1107543599 -0.2266495767
342 1 54.0962150991 4.0738373984 -0.2315656969
343 1 56.4452431494 4.0738373984 -1.0678836192
344 1 59.9732774752 6.1107543599 -1.0771703571
345 1 58.8032714256 4.0738373984 0.5905362553
346 1 62.3313060871 6.1107543599 0.5813418273
347 1 57.6242490982 6.1107543599 -0.2409432566
348 1 61.1522998389 4.0738373984 -0.2456829871
349 1 63.5013284246 4.0738373984 -1.0818524857
350 1 67.0293637758 6.1107543599 -1.0908579382
351 1 65.8593572362 4.0738373984 0.5767165565
352 1 69.3873929321 6.1107543599 0.5678077241
353 1 64.6803348362 6.1107543599 -0.2547836532
354 1 68.2083861848 4.0738373984 -0.2593528466
355 1 70.557415315 4.0738373984 -1.0953719616
356 1 74.0854517278 6.1107543599 -1.1040834159
357 1 72.915444671 4.0738373984 0.5633479361
358 1 76.4434849039 6.1107543599 0.554737158
359 1 71.7364222347 6.1107543599 -0.2681636706
360 1 75.2644741731 4.0738373984 -0.2725702939
361 1 77.613507314 4.0738373984 -1.1084380089
362 1 81.1415448157 6.1107543599 -1.1168436145
363 1 79.9715372144 4.0738373984 0.5504333795
364 1 83.4995750972 6.1107543599 0.5421321705
365 1 78.7925147691 6.1107543599 -0.2810791074
366 1 82.320567261 4.0738373984 -0.2853333689
367 1 84.6695974801 4.0738373984 -1.1210497928
368 1 88.1976361341 6.1107543599 -1.1291389058
369 1 87.027627934 4.0738373984 0.53797256
370 1 90.5556669692 6.1107543599 0.5299910557
371 1 85.8486055159 6.1107543599 -0.2935290744
372 1 89.376658516 4.0738373984 -0.297643705
373 1 91.7256892794 4.0738373984 -1.1332102533
374 1 95.2537291041 6.1107543599 -1.1409737997
375 1 94.0837202597 4.0738373984 0.5259611764
376 1 97.6117639499 6.1107543599 0.518307843
377 1 92.9046979504 6.1107543599 -0.3055166658
378 1 96.4327513861 4.0738373984 -0.3095069733
379 1 98.7817861421 4.0738373984 -1.1449265499
380 1 102.3098271646 6.1107543599 -1.1523574338
381 1 101.1398176577 4.0738373984 0.5143905451
382 1 104.6678590794 6.1107543599 0.5070717071
383 1 99.9607954665 6.1107543599 -0.317049395
384 1 103.4888492923 4.0738373984 -0.3209334549
385 1 105.8378810993 4.0738373984 -1.1562105785
386 1 109.3659233467 6.1107543599 -1.1633040995
387 1 108.195913123 4.0738373984 0.5032470821
388 1 111.7239557697 6.1107543599 0.4962665869
389 1 107.0168911223 6.1107543599 -0.3281398023
390 1 110.5449452567 4.0738373984 -0.3319384575
391 1 112.8939775537 4.0738373984 -1.1670793982
392 1 116.422021026 6.1107543599 -1.1738336328
393 1 115.2520100583 4.0738373984 0.4925119316
394 1 118.7800539391 6.1107543599 0.4858706867
395 1 114.0729883207 6.1107543599 -0.3388057996
396 1 117.6010426729 4.0738373984 -0.3425426336
397 1 119.9500788989 4.0738373984 -1.177555549
398 1 123.4781235782 6.1107543599 -1.1839717221
399 1 122.3081118482 4.0738373984 0.4821606847
400 1 125.8361569358 6.1107543599 0.4758563307
401 1 121.1290904101 6.1107543599 -0.3490711611
402 1 124.6571448983 4.0738373984 -0.3527723341
403 1 127.0061780846 4.0738373984 -1.1876672511
404 1 130.5342239797 6.1107543599 -1.193750072
405 1 129.3642114513 4.0738373984 0.4721632063
406 1 132.8922577366 6.1107543599 0.466189809
407 1 128.1851903852 6.1107543599 -0.3589655223
408 1 131.7132448916 4.0738373984 -0.3626595722
409 1 134.062278468 4.0738373984 -1.1974484412
410 1 137.5903255337 6.1107543599 -1.2032063579
411 1 136.4203121976 4.0738373984 0.4624836543
412 1 139.9483596444 6.1107543599 0.4568315134
413 1 135.2412915762 6.1107543599 -0.3685246077
414 1 138.7693459918 4.0738373984 -0.3722420595
415 1 141.1183833612 4.0738373984 -1.2069386639
416 1 144.646431543 6.1107543599 -1.2123839807
417 1 143.4764174084 4.0738373984 0.4530807236
418 1 147.0044659532 6.1107543599 0.4477362009
419 1 142.2973972679 6.1107543599 -0.3777899581
420 1 145.825451502 4.0738373984 -0.3815628522
421 1 148.1744856773 4.0738373984 -1.2161826541
422 1 151.702534939 6.1107543599 -1.2213315773
423 1 150.5325199787 4.0738373984 0.4439080461
424 1 154.0605695851 6.1107543599 0.438853656
425 1 149.3535004007 6.1107543599 -0.3868085316
426 1 152.8815543082 4.0738373984 -0.3906698883
427 1 155.2305887013 4.0738373984 -1.2252298289
428 1 158.758638961 6.1107543599 -1.2301023576
429 1 157.5886232022 4.0738373984 0.4349148072
430 1 161.1166737796 6.1107543599 0.4301293437
431 1 156.4096042504 6.1107543599 -0.3956320955
432 1 159.9376577042 4.0738373984 -0.3996152436
433 1 162.2866957178 4.0738373984 -1.2341334619
434 1 165.814746885 6.1107543599 -1.2387531249
435 1 164.6447303458 4.0738373984 0.4260466355
436 1 168.1727817852 6.1107543599 0.4215054627
437 1 163.4657120382 6.1107543599 -0.4043163822
438 1 166.9937649476 4.0738373984 -0.4084542695
439 1 169.3427995766 4.0738373984 -1.2429497574
440 1 172.8708515695 6.1107543599 -1.2473432506
441 1 171.700834259 4.0738373984 0.4172466188
442 1 175.2288864969 6.1107543599 0.4129221153
443 1 170.5218166682 6.1107543599 -0.4129200282
444 1 174.0498689061 4.0738373984 -0.4172445136
445 1 176.3989035442 4.0738373984 -1.2517367348
446 1 179.9269562449 6.1107543599 -1.2559333764
447 1 178.7569382176 4.0738373984 0.4084563747
448 1 182.284991127 6.1107543599 0.4043184783
449 1 177.57792138 6.1107543599 -0.4215033757
450 1 181.1059728284 4.0738373984 -0.4260445304
451 1 183.455007403 4.0738373984 -1.2605530213
452 1 186.9830641597 6.1107543599 -1.2645841437
453 1 185.8130454609 4.0738373984 0.3996173578
454 1 189.3410989238 6.1107543599 0.3956342006
455 1 184.6340293946 6.1107543599 -0.4301272476
456 1 188.1620799629 4.0738373984 -0.4349126839
457 1 190.5111144195 4.0738373984 -1.2694566452
458 1 194.0391681818 6.1107543599 -1.2733549059
459 1 192.8691488569 4.0738373984 0.3906720207
460 1 196.3972027644 6.1107543599 0.3868106549
461 1 191.69013358 6.1107543599 -0.4388515417
462 1 195.2181831865 4.0738373984 -0.4439059046
463 1 197.5672174434 4.0738373984 -1.2785037928
464 1 201.0952715778 6.1107543599 -1.2823024843
465 1 199.9252516722 4.0738373984 0.3815650027
466 1 203.4533058973 6.1107543599 0.3777921087
467 1 198.746237212 6.1107543599 -0.4477340776
468 1 202.2742857658 4.0738373984 -0.453078564
469 1 204.6233197687 4.0738373984 -1.2877477648
470 1 208.1513775962 6.1107543599 -1.2914800799
471 1 206.9813571733 4.0738373984 0.3722442282
472 1 210.5094115981 6.1107543599 0.3685267854
473 1 205.8023435298 6.1107543599 -0.4568293538
474 1 209.3303909766 4.0738373984 -0.4624814765
475 1 211.6794246619 4.0738373984 -1.2972379603
476 1 215.2074791501 6.1107543599 -1.3009363386
477 1 214.0374582736 4.0738373984 0.3626617772
478 1 217.5655127891 6.1107543599 0.3589677273
479 1 212.8584454285 6.1107543599 -0.4661876312
480 1 216.386491723 4.0738373984 -0.4721609832
481 1 218.7355250362 4.0738373984 -1.3070191232
482 1 222.2635795426 6.1107543599 -1.3107146522
483 1 221.0935582668 4.0738373984 0.3527745754
484 1 224.6216127551 6.1107543599 0.3490733933
485 1 219.9145462384 6.1107543599 -0.4758541076
486 1 223.4425913169 4.0738373984 -0.4821584343
487 1 225.7916242309 4.0738373984 -1.3171307889
488 1 229.3196820947 6.1107543599 -1.3208526961
489 1 228.1496605013 4.0738373984 0.3425449111
490 1 231.6777148444 6.1107543599 0.3388080863
491 1 226.9706492352 6.1107543599 -0.4858684364
492 1 230.4986931068 4.0738373984 -0.492509645
493 1 232.8477255671 4.0738373984 -1.3276068944
494 1 236.3757797741 6.1107543599 -1.331382184
495 1 235.2057579085 4.0738373984 0.3319407713
496 1 238.7338120428 6.1107543599 0.3281421161
497 1 234.0267473954 6.1107543599 -0.4962642912
498 1 237.5547900512 4.0738373984 -0.503244741
499 1 239.9038220215 4.0738373984 -1.3384756778
500 1 243.4318759653 6.1107543599 -1.3423287953
501 1 242.2618538728 4.0738373984 0.3209358141
502 1 245.7899076987 6.1107543599 0.3170517633
503 1 241.0828440857 6.1107543599 -0.5070693751
504 1 244.6108855165 4.0738373984 -0.5143881677
505 1 246.9599169786 4.0738373984 -1.349759661
506 1 250.4879740167 6.1107543599 -1.3537124021
507 1 249.3179517881 4.0738373984 0.3095093689
508 1 252.8460052147 6.1107543599 0.3055190795
509 1 248.1389392244 6.1107543599 -0.5183054566
510 1 251.6669829055 4.0738373984 -0.5259587628
511 1 254.0160138504 4.0738373984 -1.3614759122
512 1 257.5440669866 6.1107543599 -1.3655472507
513 1 256.3740446582 4.0738373984 0.2976461459
514 1 259.9020976493 6.1107543599 0.2935315334
515 1 255.1950361959 6.1107543599 -0.5299886239
516 1 258.7230752402 4.0738373984 -0.5379701009
517 1 261.0721056407 4.0738373984 -1.3736363274
518 1 264.6001583051 6.1107543599 -1.3778424876
519 1 263.4301359132 4.0738373984 0.2853358733
520 1 266.9581883961 6.1107543599 0.2810816118
521 1 262.2511280679 6.1107543599 -0.5421296933
522 1 265.7791659507 4.0738373984 -0.5504308751
523 1 268.1281958159 4.0738373984 -1.3862480659
524 1 271.656251393 6.1107543599 -1.3906026407
525 1 270.4862290011 4.0738373984 0.2725728346
526 1 274.0142809305 6.1107543599 0.2681662204
527 1 269.3072182612 6.1107543599 -0.5547346263
528 1 272.8352584942 4.0738373984 -0.5633453773
529 1 275.1842878058 4.0738373984 -1.3993140679
530 1 278.7123393541 6.1107543599 -1.403828064
531 1 277.5423169803 4.0738373984 0.2593554327
532 1 281.070368338 6.1107543599 0.2547862575
533 1 276.363310233 6.1107543599 -0.5678051562
534 1 279.891345929 4.0738373984 -0.5767139522
535 1 282.2403747052 4.0738373984 -1.4128334893
536 1 285.7684256456 6.1107543599 -1.4175155998
537 1 284.5984033353 4.0738373984 0.2456856186
538 1 288.126454076 6.1107543599 0.2409459153
539 1 283.4193970871 6.1107543599 -0.5813392049
540 1 286.9474317395 4.0738373984 -0.5905336056
541 1 289.2964599713 4.0738373984 -1.4268023104
542 1 292.8245137427 6.1107543599 -1.4316590866
543 1 291.654488066 4.0738373984 0.2315683737
544 1 295.1825416287 6.1107543599 0.2266522807
545 1 290.4754822715 6.1107543599 -0.5953315459
546 1 294.0035194102 4.0738373984 -0.6047984212
547 1 296.3525471158 4.0738373984 -1.4412137802
548 1 299.8805967766 6.1107543599 -1.4462498045
549 1 298.7105746842 4.0738373984 0.2170112569
550 1 302.2386241273 6.1107543599 0.2119147453
551 1 297.5315692889 6.1107543599 -0.6097742938
552 1 301.0596020449 4.0738373984 -0.6195001143
553 1 303.4086292241 4.0738373984 -1.4560589063
554 1 306.9366782407 6.1107543599 -1.4612771277
555 1 305.7666562844 4.0738373984 0.2020238957
556 1 309.2947050741 6.1107543599 0.1967445698
557 1 304.5876512702 6.1107543599 -0.6246573765
558 1 308.1156831279 4.0738373984 -0.6346284676
559 1 310.464709808 4.0738373984 -1.4713269359
560 1 313.9927616194 6.1107543599 -1.4767287701
561 1 312.8227363692 4.0738373984 0.1866175327
562 1 316.3507879538 6.1107543599 0.1811544126
563 1 311.6437316999 6.1107543599 -0.6399690068
564 1 315.171766189 4.0738373984 -0.6501717575
565 1 317.5207923791 4.0738373984 -1.4870057281
566 1 321.0488400619 6.1107543599 -1.492591302
567 1 319.8788184594 4.0738373984 0.1708047264
568 1 323.4068659153 6.1107543599 0.1651580571
569 1 318.6998140895 6.1107543599 -0.6556961362
570 1 322.227844332 4.0738373984 -0.6661170898
571 1 324.5768700503 4.0738373984 -1.503082062
572 1 328.1049170797 6.1107543599 -1.5088504501
573 1 326.9348956587 4.0738373984 0.1545989335
574 1 330.4629424703 6.1107543599 0.1487699763
575 1 325.7558915792 6.1107543599 -0.6718247002
576 1 329.2839210685 4.0738373984 -0.6824507628
577 1 331.6329463331 4.0738373984 -1.5195420362
578 1 335.1609961664 6.1107543599 -1.5254914146
579 1 333.9909714969 4.0738373984 0.1380142642
580 1 337.5190211124 6.1107543599 0.1320050971
581 1 332.8119676624 6.1107543599 -0.6883400621
582 1 336.3399999284 4.0738373984 -0.6991585393
583 1 338.6890247574 4.0738373984 -1.5363712865
584 1 342.2170704711 6.1107543599 -1.542499042
585 1 341.0470494766 4.0738373984 0.1210651642
586 1 344.5750949906 6.1107543599 0.1148786273
587 1 339.8680458598 6.1107543599 -0.7052271593
588 1 343.3960740243 4.0738373984 -0.7162258373
589 1 -0.0034128644 8.1476713305 -0.9459982274
590 1 3.5246148646 10.184588292 -0.9571163286
591 1 2.3546115826 8.1476713305 0.7113587894
592 1 5.8826395112 10.184588292 0.7002986349
593 1 1.1755904076 10.184588292 -0.1198027236
594 1 4.7036361122 8.1476713305 -0.1259335914
595 1 7.0526607961 8.1476713305 -0.9631861555
596 1 10.5806891693 10.184588292 -0.9741263061
597 1 9.4106856695 8.1476713305 0.6942902663
598 1 12.9387177177 10.184588292 0.683412182
599 1 8.2316642677 10.184588292 -0.1369344291
600 1 11.75971411 8.1476713305 -0.1428809583
601 1 14.1087392385 8.1476713305 -0.9800106057
602 1 17.6367682832 10.184588292 -0.9907602019
603 1 16.4667645566 8.1476713305 0.6775904749
604 1 19.9947938463 10.184588292 0.6669073095
605 1 15.2877429188 10.184588292 -0.1536955063
606 1 18.8157899845 8.1476713305 -0.1594543123
607 1 21.1648155758 8.1476713305 -0.9964557892
608 1 24.6928453646 10.184588292 -1.0070016103
609 1 23.5228413657 8.1476713305 0.6612752132
610 1 27.0508714085 10.184588292 0.6508003327
611 1 22.3438195283 10.184588292 -0.1700695587
612 1 25.8718672655 8.1476713305 -0.1756379283
613 1 28.2208933377 8.1476713305 -1.0125060444
614 1 31.7489239159 10.184588292 -1.0228343704
615 1 30.5789196085 8.1476713305 0.6453600066
616 1 34.1069539161 10.184588292 0.6351073125
617 1 29.3998975806 10.184588292 -0.1860403073
618 1 32.9279494736 8.1476713305 -0.1914163985
619 1 35.2769760449 8.1476713305 -1.0281461268
620 1 38.8050074489 10.184588292 -1.038242766
621 1 37.6350028239 8.1476713305 0.6298599543
622 1 41.1630345182 10.184588292 0.6198437382
623 1 36.4559805963 10.184588292 -0.2015918727
624 1 39.98402974 8.1476713305 -0.2067748416
625 1 42.3330568194 8.1476713305 -1.0433613911
626 1 45.8610891217 10.184588292 -1.0532118431
627 1 44.6910841246 8.1476713305 0.6147893753
628 1 48.2191167354 10.184588292 0.6050242553
629 1 43.5120617337 10.184588292 -0.2167089833
630 1 47.0401115579 8.1476713305 -0.2216992474
631 1 49.3891391818 8.1476713305 -1.0581381989
632 1 52.9171724187 10.184588292 -1.0677277548
633 1 51.7471670224 8.1476713305 0.6001615447
634 1 55.2752040432 10.184588292 0.5906622117
635 1 50.5681444863 10.184588292 -0.2313773929
636 1 54.0961984664 8.1476713305 -0.2361768123
637 1 56.4452266257 8.1476713305 -1.0724642458
638 1 59.9732608516 10.184588292 -1.0817781967
639 1 58.8032550198 8.1476713305 0.5859881862
640 1 62.3312895906 10.184588292 0.576769331
641 1 57.6242323567 10.184588292 -0.2455842527
642 1 61.1522835511 8.1476713305 -0.2501963662
643 1 63.5013122729 8.1476713305 -1.0863290062
644 1 67.0293475605 10.184588292 -1.0953528789
645 1 65.8593412296 8.1476713305 0.5722791632
646 1 69.3873768711 10.184588292 0.5633551137
647 1 64.6803184757 10.184588292 -0.2593185106
648 1 68.2083703234 8.1476713305 -0.2637488352
649 1 70.5573996169 8.1476713305 -1.0997241771
650 1 74.0854359934 10.184588292 -1.1084440159
651 1 72.9154291362 8.1476713305 0.5590418801
652 1 76.4434693511 10.184588292 0.5504263562
653 1 71.736406337 10.184588292 -0.2725715189
654 1 75.2644588108 8.1476713305 -0.2768277223
655 1 77.6134921422 8.1476713305 -1.1126443142
656 1 81.141529653 10.184588292 -1.1210469708
657 1 79.9715222332 8.1476713305 0.546280756
658 1 83.4995601432 10.184588292 0.5379865612
659 1 78.7924994068 10.184588292 -0.2853375066
660 1 82.3205524795 8.1476713305 -0.2894297153
661 1 84.6695829163 8.1476713305 -1.1250872217
662 1 88.1976216248 10.184588292 -1.1331607637
663 1 87.027613588 8.1476713305 0.5339967346