# LAMMPS data file written by OVITO Basic 3.3.0
74970 atoms
1 atom types
0.0 379.8337300478 xlo xhi
0.0 380.4108719147 ylo yhi
0.0 8.2218220093 zlo zhi
0.0 0.0296617221 0.0 xy xz yz

Masses

1 1.008  # H

Atoms  # atomic

1 1 -0.0037111544 0.0 -1.0286809832
2 1 3.8720990299 2.2377098966 -1.0407631488
3 1 2.5867599927 0.0 0.7920562626
4 1 6.4625704061 2.2377098966 0.7800365895
5 1 1.2915150438 2.2377098966 -0.1209137859
6 1 5.1673440584 0.0 -0.127772615
7 1 7.7479282638 0.0 -1.0475598143
8 1 11.623739136 2.2377098966 -1.0594504053
9 1 10.3383998695 0.0 0.7733024064
10 1 14.2142147788 2.2377098966 0.761478425
11 1 9.0431546913 2.2377098966 -0.13972843
12 1 12.9189881919 0.0 -0.1463998313
13 1 15.4995728658 0.0 -1.0660587459
14 1 19.3753844556 2.2377098966 -1.0777451819
15 1 18.0900449299 0.0 0.7549334244
16 1 21.9658567889 2.2377098966 0.7433179241
17 1 16.7947995325 2.2377098966 -0.1581557478
18 1 20.6706299228 0.0 -0.1646372192
19 1 23.2512150753 0.0 -1.0841629247
20 1 27.1270274626 2.2377098966 -1.095632137
21 1 25.8416876279 0.0 0.7369640895
22 1 29.7175002942 2.2377098966 0.7255702489
23 1 24.5464420509 2.2377098966 -0.1761803181
24 1 28.4222731192 0.0 -0.182470135
25 1 31.00285877 0.0 -1.1018578466
26 1 34.8786719847 2.2377098966 -1.1130963778
27 1 33.593331821 0.0 0.7194086968
28 1 37.4691491328 2.2377098966 0.708250093
29 1 32.2980860548 2.2377098966 -0.1937870885
30 1 36.1739216287 0.0 -0.1998844835
31 1 38.7545077879 0.0 -1.1191296553
32 1 42.6303218898 2.2377098966 -1.1301237289
33 1 41.3449813673 0.0 0.702280883
34 1 45.2207957683 2.2377098966 0.6913713822
35 1 40.0497354215 2.2377098966 -0.2109615947
36 1 43.9255678854 0.0 -0.2168668866
37 1 46.5061545829 0.0 -1.1359652822
38 1 50.3819696219 2.2377098966 -1.1467009721
39 1 49.0966286906 0.0 0.6855933384
40 1 52.9724440584 2.2377098966 0.6749468864
41 1 47.8013826053 2.2377098966 -0.2276902495
42 1 51.677215747 0.0 -0.2334050732
43 1 54.2578029828 0.0 -1.1523529145
44 1 58.1336190086 2.2377098966 -1.162816235
45 1 56.8482776488 0.0 0.6693574067
46 1 60.7240978015 2.2377098966 0.6589879496
47 1 55.5530314339 2.2377098966 -0.243960732
48 1 59.4288690614 0.0 -0.2494882275
49 1 62.0094568554 0.0 -1.1682822648
50 1 65.885273898 2.2377098966 -1.1784594395
51 1 64.5999320697 0.0 0.6535827775
52 1 68.4757494711 2.2377098966 0.643504002
53 1 63.304685755 2.2377098966 -0.2597622961
54 1 67.1805202425 0.0 -0.2651072882
55 1 69.7611085948 0.0 -1.1837449995
56 1 73.6369267339 2.2377098966 -1.1936226305
57 1 72.3515843872 0.0 0.6382770169
58 1 76.2274028851 2.2377098966 0.6285021114
59 1 71.0563380028 2.2377098966 -0.2750862092
60 1 74.9321731183 0.0 -0.2802554966
61 1 77.5127620487 0.0 -1.1987352269
62 1 81.3885813043 2.2377098966 -1.2083005846
63 1 80.1032383993 0.0 0.6234451391
64 1 83.9790618417 2.2377098966 0.6139865242
65 1 78.807991995 2.2377098966 -0.2899263011
66 1 82.6838277086 0.0 -0.2949288254
67 1 85.2644210153 0.0 -1.2132499069
68 1 89.1402414371 2.2377098966 -1.2224912684
69 1 87.854897944 0.0 0.609089058
70 1 91.7307187647 2.2377098966 0.5999580978
71 1 86.5596515397 2.2377098966 -0.3042794316
72 1 90.4354878215 0.0 -0.3091264571
73 1 93.0160778984 0.0 -1.2272894084
74 1 96.8918995264 2.2377098966 -1.2361963563
75 1 95.6065553953 0.0 0.5952072185
76 1 99.4823774321 2.2377098966 0.5864137719
77 1 94.3113090409 2.2377098966 -0.3181459395
78 1 98.187145841 0.0 -0.3228512827
79 1 100.7677364662 0.0 -1.2408579876
80 1 104.6435593402 2.2377098966 -1.2494217998
81 1 103.3582145313 0.0 0.5817939186
82 1 107.2340416222 2.2377098966 0.5733460601
83 1 102.0629682965 2.2377098966 -0.3315303208
84 1 105.9388055253 0.0 -0.3361104298
85 1 108.5194005266 0.0 -1.2539643274
86 1 112.3952246468 2.2377098966 -1.2621783547
87 1 111.1098791301 0.0 0.5688389206
88 1 114.9857036789 2.2377098966 0.5607425416
89 1 109.8146330447 2.2377098966 -0.3444416667
90 1 113.6904706722 0.0 -0.3489157705
91 1 116.271062384 0.0 -1.2666218852
92 1 120.1468878 2.2377098966 -1.2744819807
93 1 118.8615415157 0.0 0.5563270626
94 1 122.7373673505 2.2377098966 0.5485853729
95 1 117.5662956397 2.2377098966 -0.3568941424
96 1 121.4421335763 0.0 -0.3612842217
97 1 124.0227257964 0.0 -1.2788494116
98 1 127.8985524984 2.2377098966 -1.2863542895
99 1 126.6132054267 0.0 0.5442377595
100 1 130.4890325474 2.2377098966 0.5368510282
101 1 125.3179598397 2.2377098966 -0.3689074556
102 1 129.1937979756 0.0 -0.3732381924
103 1 131.7743944823 0.0 -1.2906711799
104 1 135.6502224403 2.2377098966 -1.2978227741
105 1 134.364874581 0.0 0.5325448738
106 1 138.2407029577 2.2377098966 0.5255100108
107 1 133.069629323 2.2377098966 -0.3805071358
108 1 136.9454675785 0.0 -0.384805754
109 1 139.5260607257 0.0 -1.3021171558
110 1 143.4018899399 2.2377098966 -1.3089209089
111 1 142.1165412432 0.0 0.5212165163
112 1 145.9923708759 2.2377098966 0.5145268528
113 1 140.821296374 2.2377098966 -0.3917246235
114 1 144.6971346495 0.0 -0.3960206599
115 1 147.2777281855 0.0 -1.3132229962
116 1 151.1535586257 2.2377098966 -1.3196881193
117 1 149.8682090717 0.0 0.5102151558
118 1 153.7440399206 2.2377098966 0.5038601946
119 1 148.572964691 2.2377098966 -0.4025974103
120 1 152.4488028469 0.0 -0.4069223255
121 1 155.0294005296 0.0 -1.3240299112
122 1 158.9052321362 2.2377098966 -1.3301694828
123 1 157.6198817448 0.0 0.4994978079
124 1 161.4957137302 2.2377098966 0.4934631747
125 1 156.3246378726 2.2377098966 -0.4131687196
126 1 160.2004758191 0.0 -0.4175554096
127 1 162.7810699831 0.0 -1.334584264
128 1 166.656902716 2.2377098966 -1.3404152407
129 1 165.3715514575 0.0 0.489016554
130 1 169.2473845493 2.2377098966 0.4832840064
131 1 164.0763081832 2.2377098966 -0.423487128
132 1 167.9521457809 0.0 -0.4279694159
133 1 170.5327401641 0.0 -1.3449369542
134 1 174.4085739338 2.2377098966 -1.3504800804
135 1 173.1232218379 0.0 0.4787190695
136 1 176.9990559366 2.2377098966 0.4732666767
137 1 171.8279792116 2.2377098966 -0.433605967
138 1 175.7038163308 0.0 -0.4382178853
139 1 178.2844146715 0.0 -1.3551427384
140 1 182.1602493882 2.2377098966 -1.3604222574
141 1 180.8748964849 0.0 0.4685495707
142 1 184.7507314907 2.2377098966 0.4633519926
143 1 179.5796545464 2.2377098966 -0.4435823759
144 1 183.4554910875 0.0 -0.4483575984
145 1 186.0360857099 0.0 -1.3652591949
146 1 189.911921284 2.2377098966 -1.3703024404
147 1 188.6265675731 0.0 0.4584497516
148 1 192.5024034163 2.2377098966 0.4534787179
149 1 187.3313263823 2.2377098966 -0.4534763753
150 1 191.2071622155 0.0 -0.458447399
151 1 193.7877568479 0.0 -1.375345666
152 1 197.6635931597 2.2377098966 -1.3801826235
153 1 196.3782387012 0.0 0.4483599509
154 1 200.2540752421 2.2377098966 0.4435847185
155 1 195.0829982979 2.2377098966 -0.46334966
156 1 198.9588333038 0.0 -0.4685472081
157 1 201.5394278764 0.0 -1.3854621026
158 1 205.415268624 2.2377098966 -1.3901247906
159 1 204.1299134578 0.0 0.4382202578
160 1 208.0057505769 2.2377098966 0.4336083195
161 1 202.8346738521 2.2377098966 -0.4732643241
162 1 206.7105079507 0.0 -0.478716697
163 1 209.2911023938 0.0 -1.3956678769
164 1 213.1669398418 2.2377098966 -1.4001896102
165 1 211.8815840177 0.0 0.4279717984
166 1 215.7574216153 2.2377098966 0.4234895005
167 1 210.5863452393 2.2377098966 -0.4832816438
168 1 214.4621783312 0.0 -0.4890141615
169 1 217.0427725748 0.0 -1.406020567
170 1 220.9186104117 2.2377098966 -1.4104353482
171 1 219.6332539695 0.0 0.4175578121
172 1 223.509091916 2.2377098966 0.4131711121
173 1 218.3380160584 2.2377098966 -0.4934608022
174 1 222.2138480437 0.0 -0.4994954055
175 1 224.7944420182 0.0 -1.4165748799
176 1 228.6702839223 2.2377098966 -1.4209166918
177 1 227.3849269418 0.0 0.4069247478
178 1 231.2607650976 2.2377098966 0.4025998327
179 1 226.089689868 2.2377098966 -0.5038577922
180 1 229.9655207169 0.0 -0.5102127135
181 1 232.5461143725 0.0 -1.427381775
182 1 236.4219526081 2.2377098966 -1.4316838722
183 1 235.136595149 0.0 0.3960231221
184 1 239.0124334146 2.2377098966 0.3917270856
185 1 233.8413589226 2.2377098966 -0.5145244204
186 1 237.7171885555 0.0 -0.5212140442
187 1 240.2977818321 0.0 -1.4384875855
188 1 244.1736201076 2.2377098966 -1.4427819672
189 1 242.88826221 0.0 0.3848082561
190 1 246.7641004755 2.2377098966 0.3805096279
191 1 241.5930268309 2.2377098966 -0.5255075386
192 1 245.4688552077 0.0 -0.5325423617
193 1 248.0494480657 0.0 -1.4499335214
194 1 251.9252900594 2.2377098966 -1.454250412
195 1 250.6399318129 0.0 0.3732407244
196 1 254.5157699488 2.2377098966 0.3689100075
197 1 249.3446972413 2.2377098966 -0.5368485161
198 1 253.220524362 0.0 -0.5442352175
199 1 255.8011167515 0.0 -1.46175526
200 1 259.6769547579 2.2377098966 -1.4661226709
201 1 258.3915962223 0.0 0.3612867936
202 1 262.2674341488 2.2377098966 0.3568967242
203 1 257.0963624381 2.2377098966 -0.548582831
204 1 260.9721882728 0.0 -0.5563244707
205 1 263.552780164 0.0 -1.4739827366
206 1 267.4286179011 2.2377098966 -1.478426247
207 1 266.1432591263 0.0 0.3489183922
208 1 270.0190967539 2.2377098966 0.3444442884
209 1 264.8480261197 2.2377098966 -0.5607399398
210 1 268.7238506686 0.0 -0.568836289
211 1 271.3044420313 0.0 -1.4866402444
212 1 275.1802832076 2.2377098966 -1.4911827521
213 1 273.8949242634 0.0 0.3361130913
214 1 277.7707615021 2.2377098966 0.3315329924
215 1 272.5996881765 2.2377098966 -0.5733434184
216 1 276.4755152672 0.0 -0.5817912371
217 1 279.0561060818 0.0 -1.4997465244
218 1 282.9319430215 2.2377098966 -1.5044081556
219 1 281.6465839575 0.0 0.3228539942
220 1 285.5224207477 2.2377098966 0.3181486609
221 1 280.3513523565 2.2377098966 -0.5864110804
222 1 284.2271744032 0.0 -0.5952044871
223 1 286.8077646596 0.0 -1.5133150738
224 1 290.6836011207 2.2377098966 -1.5181131838
225 1 289.3982419671 0.0 0.3091292085
226 1 293.2740782489 2.2377098966 0.3042822028
227 1 288.1030110339 2.2377098966 -0.5999553564
228 1 291.9788318446 0.0 -0.6090862867
229 1 294.5594215327 0.0 -1.5273545153
230 1 298.4352612435 2.2377098966 -1.5323038277
231 1 297.14990208 0.0 0.2949316365
232 1 301.0257377936 2.2377098966 0.2899291421
233 1 295.8546679469 2.2377098966 -0.613983733
234 1 299.7304913892 0.0 -0.6234423181
235 1 302.3110805091 0.0 -1.5418691555
236 1 306.1869158239 2.2377098966 -1.5469817221
237 1 304.9015566703 0.0 0.2802583575
238 1 308.7773917958 2.2377098966 0.2750890901
239 1 303.6063269034 2.2377098966 -0.6284992704
240 1 307.4821454114 0.0 -0.638274146
241 1 310.0627339532 0.0 -1.5568593332
242 1 313.9385686599 2.2377098966 -1.5621448732
243 1 312.6532095561 0.0 0.2651101891
244 1 316.5290440335 2.2377098966 0.2597652168
245 1 311.3579803176 2.2377098966 -0.6435011111
246 1 315.233797719 0.0 -0.6535798567
247 1 317.8143857024 0.0 -1.5723220179
248 1 321.6902235493 2.2377098966 -1.5777880178
249 1 320.4048607272 0.0 0.2494911782
250 1 324.2806983548 2.2377098966 0.2439637125
251 1 319.1096319871 2.2377098966 -0.6589850089
252 1 322.9854521499 0.0 -0.669354436
253 1 325.5660395651 0.0 -1.5882513184
254 1 329.4418729361 2.2377098966 -1.5939032408
255 1 328.1565140416 0.0 0.2334080837
256 1 332.0323471832 2.2377098966 0.2276932899
257 1 326.8612857401 2.2377098966 -0.6749438959
258 1 330.737101098 0.0 -0.6855903178
259 1 333.317687975 0.0 -1.6046389108
260 1 337.193520668 2.2377098966 -1.6104804442
261 1 335.9081619032 0.0 0.2168699369
262 1 339.783994377 2.2377098966 0.210964665
263 1 334.6129340204 2.2377098966 -0.6913683418
264 1 338.4887484213 0.0 -0.7022778127
265 1 341.06933476 0.0 -1.6214744878
266 1 344.9451705632 2.2377098966 -1.6275077454
267 1 343.6598081698 0.0 0.1998875836
268 1 347.5356437339 2.2377098966 0.1937901987
269 1 342.3645806559 2.2377098966 -0.7082470127
270 1 346.2403979675 0.0 -0.7194055866
271 1 348.8209837878 0.0 -1.6387462567
272 1 352.6968150854 2.2377098966 -1.6449719463
273 1 351.4114566794 0.0 0.1824732752
274 1 355.2872877476 2.2377098966 0.1761834782
275 1 350.1162294943 2.2377098966 -0.7255671189
276 1 353.9920421608 0.0 -0.7369609295
277 1 356.5726274826 0.0 -1.6564411387
278 1 360.4484580924 2.2377098966 -1.6628588516
279 1 359.1630998757 0.0 0.1646403992
280 1 363.0389302562 2.2377098966 0.1581589476
281 1 357.8678730097 2.2377098966 -0.7433147542
282 1 361.7436848587 0.0 -0.7549302244
283 1 364.3242696921 0.0 -1.6745452677
284 1 368.200103422 2.2377098966 -1.6811535783
285 1 366.9147416067 0.0 0.1464030511
286 1 370.7905751072 2.2377098966 0.1397316797
287 1 365.6195150198 2.2377098966 -0.7614752152
288 1 369.4953299291 0.0 -0.7732991667
289 1 372.075914294 0.0 -1.6930441493
290 1 375.951743528 2.2377098966 -1.6998408049
291 1 374.6663857401 0.0 0.1277758747
292 1 378.5422147548 2.2377098966 0.1209170655
293 1 373.3711593924 2.2377098966 -0.7800333298
294 1 377.246969796 0.0 -0.7920529929
295 1 -0.0037299949 4.4754235911 -1.0339041402
296 1 3.8720799501 6.7131334777 -1.0460501642
297 1 2.5867411522 4.4754235911 0.7868324276
298 1 6.4625513264 6.7131334777 0.7747495142
299 1 1.291495974 6.7131334777 -0.1261997247
300 1 5.1673252081 4.4754235911 -0.132996131
301 1 7.7479094234 4.4754235911 -1.0527819946
302 1 11.6237200762 6.7131334777 -1.0647343903
303 1 10.338381039 4.4754235911 0.7680826387
304 1 14.214195729 6.7131334777 0.7561976998
305 1 9.0431356215 6.7131334777 -0.1450145083
306 1 12.9189693713 4.4754235911 -0.1516160604
307 1 15.4995540651 4.4754235911 -1.0712702698
308 1 19.3753654457 6.7131334777 -1.0830158091
309 1 18.0900261492 4.4754235911 0.7497278218
310 1 21.9658377989 6.7131334777 0.738054255
311 1 16.7947805026 6.7131334777 -0.163432057
312 1 20.6706111721 4.4754235911 -0.1698356345
313 1 23.2511963544 4.4754235911 -1.0893528568
314 1 27.1270085423 6.7131334777 -1.1008777832
315 1 25.8416689468 4.4754235911 0.7317839863
316 1 29.7174814139 6.7131334777 0.7203357477
317 1 24.5464230908 6.7131334777 -0.1814356635
318 1 28.4222544681 4.4754235911 -0.1876389838
319 1 31.0028401688 4.4754235911 -1.1070139855
320 1 34.878653204 6.7131334777 -1.1183040339
321 1 33.5933132796 4.4754235911 0.714266773
322 1 37.4691304019 6.7131334777 0.7030582369
323 1 32.2980672143 6.7131334777 -0.1990089398
324 1 36.1739031272 4.4754235911 -0.2050106171
325 1 38.7544893562 4.4754235911 -1.124238384
326 1 42.6303032886 6.7131334777 -1.1352789108
327 1 41.3449630053 4.4754235911 0.6971912141
328 1 45.2207772467 6.7131334777 0.6862371841
329 1 40.0497167506 6.7131334777 -0.2161359759
330 1 43.9255496031 4.4754235911 -0.2219357412
331 1 46.5061363705 4.4754235911 -1.1410115382
332 1 50.3819512698 6.7131334777 -1.1517876106
333 1 49.0966105778 4.4754235911 0.680571515
334 1 52.9724257962 6.7131334777 0.6698869236
335 1 47.8013641636 6.7131334777 -0.2328016198
336 1 51.677197724 4.4754235911 -0.2384005596
337 1 54.2577850695 4.4754235911 -1.1573201004
338 1 58.1336009656 6.7131334777 -1.1678166958
339 1 56.848259835 4.4754235911 0.6644205251
340 1 60.7240798881 6.7131334777 0.6540204048
341 1 55.5530132812 6.7131334777 -0.2489919855
342 1 59.4288513673 4.4754235911 -0.2543927215
343 1 62.0094392809 4.4754235911 -1.1731522578
344 1 65.8852562338 6.7131334777 -1.1833544534
345 1 64.5999146347 4.4754235911 0.6487494787
346 1 68.4757319564 6.7131334777 0.6386486926
347 1 63.3046679612 6.7131334777 -0.2646946918
348 1 67.1805029471 4.4754235911 -0.2699016502
349 1 69.761091449 4.4754235911 -1.1884981316
350 1 73.6369095283 6.7131334777 -1.1983913136
351 1 72.3515673909 4.4754235911 0.633567477
352 1 76.2273858489 6.7131334777 0.6237804397
353 1 71.0563206377 6.7131334777 -0.2798994316
354 1 74.9321562914 4.4754235911 -0.2849190418
355 1 77.5127453914 4.4754235911 -1.2033503153
356 1 81.388564637 6.7131334777 -1.2129205176
357 1 80.1032219314 4.4754235911 0.6188810197
358 1 83.9790453737 6.7131334777 0.6094214179
359 1 78.8079751383 6.7131334777 -0.2945984094
360 1 82.68381144 4.4754235911 -0.2994394239
361 1 85.264404946 4.4754235911 -1.2177043728
362 1 89.1402253879 6.7131334777 -1.2269385768
363 1 87.8548820841 4.4754235911 0.6046933864
364 1 91.7307029446 6.7131334777 0.5955738701
365 1 86.5596352811 6.7131334777 -0.3087870097
366 1 90.4354721909 4.4754235911 -0.313460643
367 1 93.0160624871 4.4754235911 -1.2315593871
368 1 96.8918841948 6.7131334777 -1.2404458996
369 1 95.6065402332 4.4754235911 0.5910042181
370 1 99.4823623597 6.7131334777 0.582235922
371 1 94.3112934601 6.7131334777 -0.3224642556
372 1 98.1871309281 4.4754235911 -0.3269844937
373 1 100.7677218223 4.4754235911 -1.2449185879
374 1 104.6435448162 6.7131334777 -1.2534474405
375 1 103.3582001468 4.4754235911 0.5778087898
376 1 107.2340273871 6.7131334777 0.5694010146
377 1 102.0629534932 6.7131334777 -0.3356335464
378 1 105.9387914397 4.4754235911 -0.340017206
379 1 108.5193867201 4.4754235911 -1.2577898405
380 1 112.3952110298 6.7131334777 -1.2659532378
381 1 111.1098656326 4.4754235911 0.5650975617
382 1 114.9856903809 6.7131334777 0.5570572555
383 1 109.8146191088 6.7131334777 -0.3483031361
384 1 113.6904574839 4.4754235911 -0.3525700745
385 1 116.2710495246 4.4754235911 -1.2701862135
386 1 120.1468751799 6.7131334777 -1.2779789916
387 1 118.8615289953 4.4754235911 0.5528556108
388 1 122.7373550893 6.7131334777 0.5451870002
389 1 117.5662826807 6.7131334777 -0.3604868012
390 1 121.4421213948 4.4754235911 -0.364659916
391 1 124.0227139738 4.4754235911 -1.2821264475
392 1 127.8985409748 6.7131334777 -1.2895464935
393 1 126.6131939728 4.4754235911 0.5410622227
394 1 130.4890214226 6.7131334777 0.5337663046
395 1 125.3179479473 6.7131334777 -0.3722042193
396 1 129.1937869007 4.4754235911 -0.3763094187
397 1 131.774383796 4.4754235911 -1.2936353046
398 1 135.6502121229 6.7131334777 -1.3006839641
399 1 134.3648642835 4.4754235911 0.5296905821
400 1 138.240693059 6.7131334777 0.5227647646
401 1 133.069618587 6.7131334777 -0.3834815081
402 1 136.9454576898 4.4754235911 -0.3875475312
403 1 139.5260512457 4.4754235911 -1.3047437868
404 1 143.4018809084 6.7131334777 -1.3114262332
405 1 142.1165321918 4.4754235911 0.5187075835
406 1 145.9923622831 6.7131334777 0.5121453473
407 1 140.821286904 6.7131334777 -0.3943512246
408 1 144.6971260268 4.4754235911 -0.3984094224
409 1 147.2777200113 4.4754235911 -1.3154891761
410 1 151.1535509599 6.7131334777 -1.3218146903
411 1 149.868201356 4.4754235911 0.5080738514
412 1 153.7440327233 6.7131334777 0.5018645401
413 1 148.5729565567 6.7131334777 -0.4048526148
414 1 152.4487955798 4.4754235911 -0.4089365215
415 1 155.0293937312 4.4754235911 -1.3259149154
416 1 158.9052259059 6.7131334777 -1.3318970146
417 1 157.6198754248 4.4754235911 0.4977440091
418 1 161.4957079984 6.7131334777 0.49187264
419 1 156.3246311539 6.7131334777 -0.4150313146
420 1 160.2004699775 4.4754235911 -0.4191761288
421 1 162.7810646199 4.4754235911 -1.3360701493
422 1 166.656897981 6.7131334777 -1.3417266373
423 1 165.3715465929 4.4754235911 0.4876671176
424 1 169.2473803326 6.7131334777 0.4821144815
425 1 164.0763029398 6.7131334777 -0.424938911
426 1 167.9521414047 4.4754235911 -0.4291809082
427 1 170.5327362864 4.4754235911 -1.3460091664
428 1 174.4085707439 6.7131334777 -1.3513620138
429 1 173.1232184785 4.4754235911 0.4777873533
430 1 176.999053285 6.7131334777 0.4725301537
431 1 171.8279755134 6.7131334777 -0.4346322743
432 1 175.7038134798 4.4754235911 -0.4390080687
433 1 178.2844123389 4.4754235911 -1.3557904918
434 1 182.1602477933 6.7131334777 -1.3608655468
435 1 180.8748946706 4.4754235911 0.4680449849
436 1 184.7507304241 6.7131334777 0.4630561574
437 1 179.5796524132 6.7131334777 -0.4441726309
438 1 183.4554897816 4.4754235911 -0.4487184182
439 1 186.0360849224 4.4754235911 -1.3654758702
440 1 189.911921284 6.7131334777 -1.3703024603
441 1 188.6265673139 4.4754235911 0.4583774899
442 1 192.5024039446 6.7131334777 0.4536266904
443 1 187.331325844 6.7131334777 -0.4536243975
444 1 191.2071624746 4.4754235911 -0.4583751772
445 1 193.7877576255 4.4754235911 -1.3751290405
446 1 197.6635947646 6.7131334777 -1.3797393739
447 1 196.3782400071 4.4754235911 0.448720731
448 1 200.2540773755 6.7131334777 0.4441749336
449 1 195.0829993646 6.7131334777 -0.4630538647
450 1 198.9588351279 4.4754235911 -0.4680426722
451 1 201.539430209 4.4754235911 -1.384814409
452 1 205.415271804 6.7131334777 -1.3892429069
453 1 204.1299163087 4.4754235911 0.4390103913
454 1 208.0057542852 6.7131334777 0.4346345869
455 1 202.8346765136 6.7131334777 -0.472527851
456 1 206.7105113101 4.4754235911 -0.4777850207
457 1 209.2911062615 4.4754235911 -1.3945957244
458 1 213.1669445669 6.7131334777 -1.3988782635
459 1 211.8815883839 4.4754235911 0.4291832508
460 1 215.7574268487 6.7131334777 0.4249412436
461 1 210.5863494559 6.7131334777 -0.4821121588
462 1 214.4621831958 4.4754235911 -0.487664765
463 1 217.0427779279 4.4754235911 -1.4045347116
464 1 220.918616642 6.7131334777 -1.4087078663
465 1 219.633259821 4.4754235911 0.4191784913
466 1 223.5090986348 6.7131334777 0.4150336772
467 1 218.3380217903 6.7131334777 -0.4918703074
468 1 222.2138543737 4.4754235911 -0.4977416366
469 1 224.7944488267 4.4754235911 -1.4146899256
470 1 228.670291598 6.7131334777 -1.4187901607
471 1 227.3849342088 4.4754235911 0.4089389039
472 1 231.2607732419 6.7131334777 0.4048550072
473 1 226.0896970752 6.7131334777 -0.5018621676
474 1 229.9655284425 4.4754235911 -0.5080714589
475 1 232.5461225467 4.4754235911 -1.425115635
476 1 236.4219616495 6.7131334777 -1.4291785879
477 1 235.1366037619 4.4754235911 0.3984118448
478 1 239.0124428947 6.7131334777 0.394353647
479 1 233.8413675055 6.7131334777 -0.5121429548
480 1 237.7171976069 4.4754235911 -0.5187051412
481 1 240.2977913022 4.4754235911 -1.4358609944
482 1 244.173630425 6.7131334777 -1.4399208172
483 1 242.8882720988 4.4754235911 0.3875499935
484 1 246.7641112017 6.7131334777 0.3834839604
485 1 241.5930367395 6.7131334777 -0.5227623223
486 1 245.4688655051 4.4754235911 -0.5296881099
487 1 248.0494587619 4.4754235911 -1.4469694366
488 1 251.925301573 6.7131334777 -1.4510582378
489 1 250.6399428979 4.4754235911 0.3763119207
490 1 254.5157818413 6.7131334777 0.3722067314
491 1 249.3447083761 6.7131334777 -0.5337638324
492 1 253.2205358158 4.4754235911 -0.5410597107
493 1 255.8011285741 4.4754235911 -1.4584782439
494 1 259.676967368 6.7131334777 -1.4626256898
495 1 258.3916083938 4.4754235911 0.3646624579
496 1 262.2674471078 6.7131334777 0.3604893431
497 1 257.0963746993 6.7131334777 -0.5451844782
498 1 260.9722008033 4.4754235911 -0.552853039
499 1 263.5527930234 4.4754235911 -1.4704184381
500 1 267.4286315281 6.7131334777 -1.4746513839
501 1 266.1432723046 4.4754235911 0.3525726663
502 1 270.0191106799 6.7131334777 0.3483057379
503 1 264.8480394077 6.7131334777 -0.5570546936
504 1 268.7238641659 4.4754235911 -0.5650949499
505 1 271.3044558277 4.4754235911 -1.4828147612
506 1 275.1802977318 6.7131334777 -1.4871571512
507 1 273.8949383588 4.4754235911 0.3400198378
508 1 277.7707762954 6.7131334777 0.3356361981
509 1 272.5997024115 6.7131334777 -0.569398393
510 1 276.4755296419 4.4754235911 -0.5778061382
511 1 279.0561207355 4.4754235911 -1.4956859639
512 1 282.931958353 6.7131334777 -1.5001586423
513 1 281.6465988704 4.4754235911 0.3269871752
514 1 285.5224363285 6.7131334777 0.322466957
515 1 280.3513674288 6.7131334777 -0.5822332505
516 1 284.2271895653 4.4754235911 -0.5910015166
517 1 286.8077800608 4.4754235911 -1.509045115
518 1 290.6836171601 6.7131334777 -1.5136659053
519 1 289.3982576077 4.4754235911 0.3134633943
520 1 293.2740945075 6.7131334777 0.308789761
521 1 288.1030268439 6.7131334777 -0.5955711487
522 1 291.9788477044 4.4754235911 -0.6046906351
523 1 294.5594376119 4.4754235911 -1.5229000793
524 1 298.4352779109 6.7131334777 -1.5276839146
525 1 297.1499183586 4.4754235911 0.299442215
526 1 301.0257546503 6.7131334777 0.2946012105
527 1 295.8546844149 6.7131334777 -0.6094186367
528 1 299.7305078572 4.4754235911 -0.6188782087
529 1 302.3110971565 4.4754235911 -1.5372540871
530 1 306.1869330296 6.7131334777 -1.5422130589
531 1 304.9015734971 4.4754235911 0.2849218829
532 1 308.7774091609 6.7131334777 0.2799022926
533 1 303.6063439396 6.7131334777 -0.6237776187
534 1 307.4821623978 4.4754235911 -0.633564616
535 1 310.0627511089 4.4754235911 -1.5521062109
536 1 313.9385863141 6.7131334777 -1.5572498693
537 1 312.6532268514 4.4754235911 0.2699045411
538 1 316.5290618373 6.7131334777 0.2646976126
539 1 311.3579978422 6.7131334777 -0.6386458117
540 1 315.2338151538 4.4754235911 -0.6487465678
541 1 317.8144032669 4.4754235911 -1.5674520349
542 1 321.6902415822 6.7131334777 -1.5727875769
543 1 320.4048784213 4.4754235911 0.2543956622
544 1 324.2807165073 6.7131334777 0.2489949561
545 1 319.1096499105 6.7131334777 -0.6540174741
546 1 322.9854699535 4.4754235911 -0.6644175644
547 1 325.5660574885 4.4754235911 -1.5832841424
548 1 329.441891288 6.7131334777 -1.5888166023
549 1 328.1565320647 4.4754235911 0.2384035502
550 1 332.032365625 6.7131334777 0.2328046404
551 1 326.8613039924 6.7131334777 -0.669883943
552 1 330.7371192207 4.4754235911 -0.6805685046
553 1 333.3177061774 4.4754235911 -1.5995926548
554 1 337.1935392693 6.7131334777 -1.6053252722
555 1 335.9081801954 4.4754235911 0.2219387816
556 1 339.784013038 6.7131334777 0.2161390362
557 1 334.6129525418 6.7131334777 -0.6862341536
558 1 338.4887667833 4.4754235911 -0.6971881638
559 1 341.0693531917 4.4754235911 -1.6163657592
560 1 344.9451893538 6.7131334777 -1.6223000893
561 1 343.6598266614 4.4754235911 0.2050137074
562 1 347.5356625744 6.7131334777 0.1990120499
563 1 342.3645993867 6.7131334777 -0.7030551567
564 1 346.240416519 4.4754235911 -0.7142636628
565 1 348.821002389 4.4754235911 -1.6335901178
566 1 352.6968340156 6.7131334777 -1.6397263002
567 1 351.4114753304 4.4754235911 0.1876421239
568 1 355.2873067077 6.7131334777 0.1814388236
569 1 350.1162483847 6.7131334777 -0.7203326175
570 1 353.9920608517 4.4754235911 -0.7317808362
571 1 356.5726462035 4.4754235911 -1.6512512066
572 1 360.4484771122 6.7131334777 -1.6575882244
573 1 359.1631186265 4.4754235911 0.1698388145
574 1 363.0389492959 6.7131334777 0.1634352569
575 1 357.8678919997 6.7131334777 -0.7380510851
576 1 361.7437036393 4.4754235911 -0.7497246318
577 1 364.3242884927 4.4754235911 -1.6693337538
578 1 368.2001224817 6.7131334777 -1.6758696033
579 1 366.9147604272 4.4754235911 0.1516192802
580 1 370.790594177 6.7131334777 0.1450177481
581 1 365.6195340696 6.7131334777 -0.7561944799
582 1 369.4953487597 4.4754235911 -0.7680794088
583 1 372.0759331345 4.4754235911 -1.6878219791
584 1 375.9517625978 6.7131334777 -1.6945537896
585 1 374.6664045806 4.4754235911 0.1329993907
586 1 378.5422338245 6.7131334777 0.1262030043
587 1 373.3711784622 6.7131334777 -0.7747462545
588 1 377.2469886464 4.4754235911 -0.7868291479
589 1 -0.0037492939 8.9508433742 -1.039251784
590 1 3.8720604118 11.1885532608 -1.051465873
591 1 2.5867218532 8.9508433742 0.7814823216
592 1 6.4625317782 11.1885532608 0.7693318915
593 1 1.2914764457 11.1885532608 -0.1316125027
594 1 5.167305899 8.9508433742 -0.1383477323
595 1 7.7478901144 8.9508433742 -1.0581340445
596 1 11.6237005279 11.1885532608 -1.070152641
597 1 10.33836173 8.9508433742 0.7627312367
598 1 14.2141761807 11.1885532608 0.7507808247
599 1 9.0431160734 11.1885532608 -0.1504329983
600 1 12.9189500723 8.9508433742 -0.1569657178
601 1 15.4995347761 8.9508433742 -1.0766169965
602 1 19.3753459273 11.1885532608 -1.0884262544
603 1 18.0900068802 8.9508433742 0.7443852319
604 1 21.9658183005 11.1885532608 0.7326489533
605 1 16.7947609643 11.1885532608 -0.1688463302
606 1 20.6705919129 8.9508433742 -0.1751728214
607 1 23.2511771252 8.9508433742 -1.094683295
608 1 27.1269890938 11.1885532608 -1.1062686902
609 1 25.8416497475 8.9508433742 0.7264616625
610 1 29.7174619952 11.1885532608 0.714954201
611 1 24.5464036124 11.1885532608 -0.1868344857
612 1 28.4222352987 8.9508433742 -0.1929517678
613 1 31.0028210393 8.9508433742 -1.1123157343
614 1 34.8786338751 11.1885532608 -1.1236621945
615 1 33.5932941899 8.9508433742 0.7089775845
616 1 37.4691111228 11.1885532608 0.6977142118
617 1 32.2980478455 11.1885532608 -0.2043795809
618 1 36.1738840973 8.9508433742 -0.2102856304
619 1 38.7544703861 8.9508433742 -1.1294975673
620 1 42.6302841292 11.1885532608 -1.1405895017
621 1 41.3449440951 8.9508433742 0.6919495853
622 1 45.2207581571 11.1885532608 0.6809460019
623 1 40.0496975313 11.1885532608 -0.2214641712
624 1 43.9255307627 8.9508433742 -0.227158061
625 1 46.5061176098 8.9508433742 -1.1462127049
626 1 50.3819323397 11.1885532608 -1.1570341838
627 1 49.0965918968 8.9508433742 0.6753933956
628 1 52.9724069656 11.1885532608 0.6646656605
629 1 47.8013451536 11.1885532608 -0.2380714794
630 1 51.6771791327 8.9508433742 -0.2435536682
631 1 54.2577665779 8.9508433742 -1.1624461644
632 1 58.1335823345 11.1885532608 -1.1729810288
633 1 56.8482414531 8.9508433742 0.6593235991
634 1 60.7240613666 11.1885532608 0.6488878515
635 1 55.5529945504 11.1885532608 -0.2541858551
636 1 59.428833095 8.9508433742 -0.2594583863
637 1 62.0094211284 8.9508433742 -1.1781844283
638 1 65.8852379715 11.1885532608 -1.1884165195
639 1 64.5998966117 8.9508433742 0.6437530751
640 1 68.4757138337 11.1885532608 0.6336254539
641 1 63.3046495694 11.1885532608 -0.2697931829
642 1 67.1804850537 8.9508433742 -0.2748599441
643 1 69.7610737051 8.9508433742 -1.1934159336
644 1 73.6368917145 11.1885532608 -1.2033293515
645 1 72.3515498064 8.9508433742 0.6286926593
646 1 76.2273682047 11.1885532608 0.6188889048
647 1 71.0563026644 11.1885532608 -0.2848813211
648 1 74.9321388664 8.9508433742 -0.2897483733
649 1 77.5127281458 8.9508433742 -1.2081315587
650 1 81.3885473515 11.1885532608 -1.217710972
651 1 80.1032048652 8.9508433742 0.6141504861
652 1 83.9790282877 11.1885532608 0.6046856707
653 1 78.8079576735 11.1885532608 -0.2994407696
654 1 82.6837945633 8.9508433742 -0.3041165363
655 1 85.2643882787 8.9508433742 -1.2223253226
656 1 89.1402087305 11.1885532608 -1.2315562869
657 1 87.8548656261 8.9508433742 0.6001314102
658 1 91.7306865165 11.1885532608 0.5910195995
659 1 86.5596184045 11.1885532608 -0.3134651886
660 1 90.4354559522 8.9508433742 -0.3179607945
661 1 93.0160464876 8.9508433742 -1.2359948132
662 1 96.8918682552 11.1885532608 -1.2448642198