# LAMMPS data file written by OVITO Basic 3.3.0
74970 atoms
1 atom types
0.0 397.000082752 xlo xhi
0.0 396.3926211559 ylo yhi
0.0 8.5803092018 zlo zhi
0.0 0.0309078615 0.0 xy xz yz

Masses

1 1.008  # H

Atoms  # atomic

1 1 -0.003857103 0.0 -1.0707681109
2 1 2.3313989453 4.0448220184 -1.0811474581
3 1 0.0030001123 2.6965480088 0.8328600013
4 1 2.3382559317 6.7413700272 0.8224157906
5 1 2.3348444268 1.3482740095 -0.1246513396
6 1 -4.4544205984e-04 5.3930960175 -0.1236575787
7 1 4.6666927673 0.0 -1.0821416663
8 1 7.0019490548 4.0448220184 -1.0924542149
9 1 4.673549993 2.6965480088 0.8214874135
10 1 7.0088060412 6.7413700272 0.8111093666
11 1 7.005394526 1.3482740095 -0.1359594696
12 1 4.6701044386 5.3930960175 -0.1350302395
13 1 9.337239142 0.0 -1.0933857649
14 1 11.6724956793 4.0448220184 -1.1036271455
15 1 9.3440963781 2.6965480088 0.8102461445
16 1 11.679352676 6.7413700272 0.7999387039
17 1 11.6759411399 1.3482740095 -0.147135698
18 1 9.3406508238 5.3930960175 -0.1462696983
19 1 14.0077899487 0.0 -1.1044974938
20 1 16.3430467667 4.0448220184 -1.1146631395
21 1 14.0146472055 2.6965480088 0.799139253
22 1 16.3499037843 6.7413700272 0.7889070689
23 1 16.3464922066 1.3482740095 -0.158177081
24 1 14.011201672 5.3930960175 -0.1573727718
25 1 18.6783372806 0.0 -1.1154739297
26 1 21.0135983535 4.0448220184 -1.1255590863
27 1 18.6851945582 2.6965480088 0.7881697872
28 1 21.0204553918 6.7413700272 0.7780176864
29 1 21.0170437725 1.3482740095 -0.1690806324
30 1 18.6817490455 5.3930960175 -0.1683362663
31 1 23.3488890858 0.0 -1.1263122119
32 1 25.6841464968 4.0448220184 -1.1363119274
33 1 23.3557463947 2.6965480088 0.777340743
34 1 25.6910035664 6.7413700272 0.7672738129
35 1 25.6875918743 1.3482740095 -0.1798434501
36 1 23.3523009132 5.3930960175 -0.1791570295
37 1 28.0194414007 0.0 -1.1370095627
38 1 30.3546991343 4.0448220184 -1.1469186771
39 1 28.0262987512 2.6965480088 0.7666550959
40 1 30.3615562455 6.7413700272 0.7566785899
41 1 30.3581444701 1.3482740095 -0.1904626731
42 1 28.0228533113 5.3930960175 -0.1898319613
43 1 32.6899902515 0.0 -1.1475631937
44 1 35.0252483387 4.0448220184 -1.1573763808
45 1 32.696847654 2.6965480088 0.7561157275
46 1 35.0321054916 6.7413700272 0.7462351073
47 1 35.0286936122 1.3482740095 -0.2009355447
48 1 32.6934022661 5.3930960175 -0.2003580034
49 1 37.3605435964 0.0 -1.1579704838
50 1 39.6958020581 4.0448220184 -1.1676822089
51 1 37.3674010613 2.6965480088 0.7457254362
52 1 39.7026592838 6.7413700272 0.7359463819
53 1 39.6992472692 1.3482740095 -0.2112593806
54 1 37.3639557254 5.3930960175 -0.2107321699
55 1 42.0310935186 0.0 -1.1682288944
56 1 44.3663563289 4.0448220184 -1.177833415
57 1 42.0379510565 2.6965480088 0.735486958
58 1 44.373213617 6.7413700272 0.7258153267
59 1 44.3698014672 1.3482740095 -0.2214316116
60 1 42.0345057829 5.3930960175 -0.2209515998
61 1 46.7016479559 0.0 -1.178336012
62 1 49.0369071978 4.0448220184 -1.1878274087
63 1 46.7085055769 2.6965480088 0.7254028417
64 1 49.0437645796 6.7413700272 0.7158447296
65 1 49.0403522425 1.3482740095 -0.2314498134
66 1 46.7050603866 5.3930960175 -0.2310135365
67 1 51.3721989705 0.0 -1.1882895375
68 1 53.7074626131 4.0448220184 -1.1976617765
69 1 51.3790566852 2.6965480088 0.7154755426
70 1 53.7143200987 6.7413700272 0.7060371707
71 1 53.710907564 1.3482740095 -0.2413117392
72 1 51.3756115885 5.3930960175 -0.2409153687
73 1 56.0427545208 0.0 -1.1980874319
74 1 58.3780146471 4.0448220184 -1.2073342401
75 1 56.0496123499 2.6965480088 0.7057072869
76 1 58.3848722369 6.7413700272 0.696395126
77 1 58.3814594836 1.3482740095 -0.2510152977
78 1 56.0461673573 5.3930960175 -0.2506546622
79 1 60.713310633 0.0 -1.2077277809
80 1 63.0485712379 4.0448220184 -1.2168427709
81 1 60.7201685765 2.6965480088 0.696100155
82 1 63.0554289525 6.7413700272 0.6869207904
83 1 63.0520159495 1.3482740095 -0.2605586271
84 1 60.7167236984 5.3930960175 -0.2602291801
85 1 65.3838633537 0.0 -1.2172089305
86 1 67.7191284215 4.0448220184 -1.2261855899
87 1 65.3907214325 2.6965480088 0.6866559886
88 1 67.7259862713 6.7413700272 0.6776161405
89 1 67.7225729979 1.3482740095 -0.2699401249
90 1 65.3872766792 5.3930960175 -0.2696369043
91 1 70.0544206206 0.0 -1.2265294764
92 1 72.3896822449 4.0448220184 -1.2353611679
93 1 70.061278845 2.6965480088 0.6773763167
94 1 72.3965402404 6.7413700272 0.668482893
95 1 72.3931266653 1.3482740095 -0.2791584391
96 1 70.0578342477 5.3930960175 -0.2788760976
97 1 74.7249745065 0.0 -1.2356883157
98 1 77.0602406458 4.0448220184 -1.2443683188
99 1 74.731832887 2.6965480088 0.6682624606
100 1 77.0670988078 6.7413700272 0.6595224105
101 1 77.0636848893 1.3482740095 -0.2882125394
102 1 74.7283884456 5.3930960175 -0.2879453033
103 1 79.395532949 0.0 -1.2446846473
104 1 81.730795676 4.0448220184 -1.2532061481
105 1 79.4023915063 2.6965480088 0.6593153567
106 1 81.7376540252 6.7413700272 0.6507357543
107 1 81.7342397427 1.3482740095 -0.2971016979
108 1 79.3989472419 5.3930960175 -0.296843398
109 1 84.0660919636 0.0 -1.2535180138
110 1 86.4013553044 4.0448220184 -1.2618741876
111 1 84.0729507185 2.6965480088 0.6505355874
112 1 86.4082138512 6.7413700272 0.6421235486
113 1 86.404799163 1.3482740095 -0.3058256231
114 1 84.0695066414 5.3930960175 -0.3055696224
115 1 88.7366475972 0.0 -1.2621883732
116 1 91.0719115621 4.0448220184 -1.2703723853
117 1 88.7435065601 2.6965480088 0.641923392
118 1 91.0787703275 6.7413700272 0.6336860325
119 1 91.0753552024 1.3482740095 -0.3143843463
120 1 88.7400627016 5.3930960175 -0.3141236018
121 1 93.4072077978 0.0 -1.2706960481
122 1 95.7424723974 4.0448220184 -1.2787011052
123 1 93.4140669896 2.6965480088 0.6334785104
124 1 95.749331402 6.7413700272 0.625422946
125 1 95.7459158087 1.3482740095 -0.3227784292
126 1 93.4106233599 5.3930960175 -0.3225054402
127 1 98.0777646069 0.0 -1.2790418708
128 1 100.4130338463 4.0448220184 -1.2868612317
129 1 98.084624038 2.6965480088 0.6252002874
130 1 100.4198931111 6.7413700272 0.6173335505
131 1 100.416477008 1.3482740095 -0.3310088186
132 1 98.081180658 5.3930960175 -0.3307156683
133 1 102.7483259727 0.0 -1.2872271106
134 1 105.0835919247 4.0448220184 -1.294854138
135 1 102.7551856638 2.6965480088 0.617087516
136 1 105.0904514598 6.7413700272 0.6094165767
137 1 105.0870348158 1.3482740095 -0.3390770125
138 1 102.7517425438 5.3930960175 -0.3387553887
139 1 107.4188878897 0.0 -1.295253567
140 1 109.7541545699 4.0448220184 -1.3026818007
141 1 107.4257478619 2.6965480088 0.609138511
142 1 109.7610144068 6.7413700272 0.6016701315
143 1 109.7575971699 1.3482740095 -0.3469850395
144 1 107.4223050227 5.3930960175 -0.346626214
145 1 112.0894464155 0.0 -1.3031235497
146 1 114.4247138342 4.0448220184 -1.3103467477
147 1 112.0963066788 2.6965480088 0.6013509732
148 1 114.4315739729 6.7413700272 0.5940917491
149 1 114.428156122 1.3482740095 -0.3547355003
150 1 112.0928641413 5.3930960175 -0.3543303289
151 1 116.7600094665 0.0 -1.3108399923
152 1 119.0952776344 4.0448220184 -1.3178521416
153 1 116.7668700523 2.6965480088 0.5937220524
154 1 119.1021381058 6.7413700272 0.5866782982
155 1 119.0987195996 1.3482740095 -0.3623315681
156 1 116.763427827 5.3930960175 -0.3618705837
157 1 121.4305690845 0.0 -1.3184063591
158 1 123.7658420066 4.0448220184 -1.3252018004
159 1 121.4374300033 2.6965480088 0.5862482425
160 1 123.7727028317 6.7413700272 0.5794259714
161 1 123.7692836182 1.3482740095 -0.3697770503
162 1 121.4339881108 5.3930960175 -0.3692504428
163 1 126.1011331966 0.0 -1.3258267904
164 1 128.4364029458 4.0448220184 -1.3324001765
165 1 126.1079944691 2.6965480088 0.5789254343
166 1 128.443264135 6.7413700272 0.5723302639
167 1 128.4398442037 1.3482740095 -0.3770763994
168 1 126.1045529408 5.3930960175 -0.376474057
169 1 130.7716938445 0.0 -1.3331059886
170 1 133.1069683896 4.0448220184 -1.3394524508
171 1 130.7785554916 2.6965480088 0.5717488215
172 1 133.1138299741 6.7413700272 0.5653859639
173 1 133.1104092625 1.3482740095 -0.3842346714
174 1 130.7751143378 5.3930960175 -0.3835462534
175 1 135.4422589554 0.0 -1.3402493321
176 1 137.7775303587 4.0448220184 -1.346364449
177 1 135.449120977 2.6965480088 0.5647129529
178 1 137.784392349 6.7413700272 0.5585870894
179 1 137.7809708363 1.3482740095 -0.39125764
180 1 135.4456802184 5.3930960175 -0.3904725975
181 1 140.1128245345 0.0 -1.3472628546
182 1 142.4480967803 4.0448220184 -1.3531427564
183 1 140.1196869617 2.6965480088 0.5578116803
184 1 142.4549591972 6.7413700272 0.5519269618
185 1 142.4515368419 1.3482740095 -0.3981517032
186 1 140.1162466193 5.3930960175 -0.3972593523
187 1 144.7833865868 0.0 -1.3541532039
188 1 147.1186636702 4.0448220184 -1.3597946239
189 1 144.7902494405 2.6965480088 0.5510381896
190 1 147.1255265239 6.7413700272 0.5453981325
191 1 147.1221032844 1.3482740095 -0.4049239456
192 1 144.7868095247 5.3930960175 -0.4039134773
193 1 149.4539530292 0.0 -1.360927683
194 1 151.7892270021 4.0448220184 -1.3663279579
195 1 149.46081632 2.6965480088 0.5443849697
196 1 151.796090324 6.7413700272 0.5389924451
197 1 151.7926661793 1.3482740095 -0.4115820758
198 1 149.4573768515 5.3930960175 -0.4104427124
199 1 154.1245158827 0.0 -1.3675942085
200 1 156.4597947137 4.0448220184 -1.3727514243
201 1 154.1313796207 2.6965480088 0.5378438853
202 1 156.4666585038 6.7413700272 0.5327010052
203 1 156.4632334228 1.3482740095 -0.4181344579
204 1 154.1279406203 5.3930960175 -0.4168554427
205 1 158.7950830638 0.0 -1.3741613111
206 1 161.1303588051 4.0448220184 -1.3790742194
207 1 158.80194727 2.6965480088 0.5314061147
208 1 161.1372230945 6.7413700272 0.5265142521
209 1 161.1337970357 1.3482740095 -0.4245900388
210 1 158.7985087481 5.3930960175 -0.4231607397
211 1 163.4656505778 0.0 -1.3806380832
212 1 165.800927193 4.0448220184 -1.3853062573
213 1 163.4725152624 2.6965480088 0.5250622533
214 1 165.8077919818 6.7413700272 0.5204219805
215 1 165.8043649346 1.3482740095 -0.4309583476
216 1 163.4690772296 5.3930960175 -0.4293683406
217 1 168.1362144091 0.0 -1.3870341476
218 1 170.4714919085 4.0448220184 -1.3914579102
219 1 168.1430795827 2.6965480088 0.518802366
220 1 170.4783572071 6.7413700272 0.5144133813
221 1 170.4749291404 1.3482740095 -0.4372494235
222 1 168.1396420491 5.3930960175 -0.435488576
223 1 172.8067824744 0.0 -1.3933596163
224 1 175.1420608374 4.0448220184 -1.397540174
225 1 172.8136481474 2.6965480088 0.5126159147
226 1 175.1489266664 6.7413700272 0.5084770841
227 1 175.1454975699 1.3482740095 -0.443473836
228 1 172.810211134 5.3930960175 -0.4415323482
229 1 177.4773467738 0.0 -1.399625038
230 1 179.8126299847 4.0448220184 -1.4035643986
231 1 177.4842129566 2.6965480088 0.5064919862
232 1 179.8194963547 6.7413700272 0.5026012394
233 1 179.8160661866 1.3482740095 -0.4496425083
234 1 177.4807764633 5.3930960175 -0.447511007
235 1 182.1479152137 0.0 -1.4058413568
236 1 184.4831953244 4.0448220184 -1.4095423605
237 1 182.1547819166 2.6965480088 0.5004191685
238 1 184.4900622249 6.7413700272 0.4967736136
239 1 184.4866310062 1.3482740095 -0.4557667801
240 1 182.151345954 5.3930960175 -0.4534364018
241 1 186.8184838096 0.0 -1.4120198082
242 1 189.1537647526 4.0448220184 -1.4154861376
243 1 186.8253510327 2.6965480088 0.4943857994
244 1 189.1606322046 6.7413700272 0.4909816184
245 1 189.1571998934 1.3482740095 -0.4618582507
246 1 186.8219156007 5.3930960175 -0.4593207041
247 1 191.4890485147 0.0 -1.4181718876
248 1 193.8243302899 4.0448220184 -1.4214080681
249 1 191.4959162684 2.6965480088 0.4883798947
250 1 193.8311982933 6.7413700272 0.4852124061
251 1 193.8277649002 1.3482740095 -0.4679287278
252 1 191.4924813876 5.3930960175 -0.4651763769
253 1 196.1596172459 0.0 -1.4243092569
254 1 198.4948998429 4.0448220184 -1.4273206045
255 1 196.1664855302 2.6965480088 0.4823893139
256 1 198.5017683873 6.7413700272 0.4794529936
257 1 198.4983339122 1.3482740095 -0.4739902062
258 1 196.1630511799 5.3930960175 -0.4710160913
259 1 200.8301820343 0.0 -1.430443682
260 1 203.1654693752 4.0448220184 -1.4332362723
261 1 200.8370508387 2.6965480088 0.4764018018
262 1 203.1723384812 6.7413700272 0.4736903145
263 1 203.1689029139 1.3482740095 -0.480054691
264 1 200.8336170399 5.3930960175 -0.4768525911
265 1 205.5007507343 0.0 -1.43658695
266 1 207.8360348814 4.0448220184 -1.4391675761
267 1 205.5076200692 2.6965480088 0.4704050831
268 1 207.8429045283 6.7413700272 0.4679113129
269 1 207.8394678792 1.3482740095 -0.4861341772
270 1 205.5041868218 5.3930960175 -0.4826986931
271 1 210.1713154082 0.0 -1.4427507641
272 1 212.5066042471 4.0448220184 -1.4451269371
273 1 210.1781852632 2.6965480088 0.4643869443
274 1 212.5134744455 6.7413700272 0.4621030889
275 1 212.5100367247 1.3482740095 -0.4922405867
276 1 210.1747525464 5.3930960175 -0.4885671098
277 1 214.8418839312 0.0 -1.4489467343
278 1 217.177169514 4.0448220184 -1.4511265376
279 1 214.848754317 2.6965480088 0.4583353386
280 1 217.184040243 6.7413700272 0.4562529089
281 1 217.1806014611 1.3482740095 -0.4983856232
282 1 214.8453221307 5.3930960175 -0.494470429
283 1 219.5124522879 0.0 -1.455186221
284 1 221.8477385573 4.0448220184 -1.4571783305
285 1 219.5193231834 2.6965480088 0.4522383959
286 1 221.8546098168 6.7413700272 0.4503483309
287 1 221.8511699842 1.3482740095 -0.504580782
288 1 219.5158915275 5.3930960175 -0.5004209682
289 1 224.1830164938 0.0 -1.4614803346
290 1 226.5183073717 4.0448220184 -1.4632939053
291 1 224.1898878885 2.6965480088 0.4460846
292 1 226.5251791618 6.7413700272 0.4443773287
293 1 226.5217382992 1.3482740095 -0.5108371946
294 1 224.1864567528 5.3930960175 -0.5064307325
295 1 228.8535844238 0.0 -1.4678398111
296 1 231.1888719416 4.0448220184 -1.4694844242
297 1 228.8604563284 2.6965480088 0.4398627675
298 1 231.1957442414 6.7413700272 0.4383282717
299 1 231.1923023698 1.3482740095 -0.5171656073
300 1 228.8570257025 5.3930960175 -0.5125113527
301 1 233.5241481199 0.0 -1.4742749914
302 1 235.8594401735 4.0448220184 -1.475760582
303 1 233.531020503 2.6965480088 0.4335621624
304 1 235.8663129622 6.7413700272 0.4321900702
305 1 235.8628701126 1.3482740095 -0.5235763297
306 1 233.527590366 5.3930960175 -0.5186739392
307 1 238.1947154778 0.0 -1.4807957689
308 1 240.5300040879 4.0448220184 -1.4821325215
309 1 238.201588329 2.6965480088 0.4271725583
310 1 240.5368773657 6.7413700272 0.425952196
311 1 240.5334335589 1.3482740095 -0.5300791617
312 1 238.1981586811 5.3930960175 -0.5249291553
313 1 242.8652824821 0.0 -1.4874114958
314 1 245.2005716019 4.0448220184 -1.4886098242
315 1 242.872155791 2.6965480088 0.4206842491
316 1 245.2074453478 6.7413700272 0.4196047766
317 1 245.2040006153 1.3482740095 -0.5366833516
318 1 242.8687266216 5.3930960175 -0.531287009
319 1 247.5358451483 0.0 -1.4941309837
320 1 249.8711347362 4.0448220184 -1.4952014054
321 1 247.5427189045 2.6965480088 0.4140881425
322 1 249.8780089294 6.7413700272 0.4131385638
323 1 249.8745633022 1.3482740095 -0.5433975339
324 1 247.5392901824 5.3930960175 -0.5377568942
325 1 252.2064113827 0.0 -1.5009624616
326 1 254.5417013867 4.0448220184 -1.5019155565
327 1 252.2132855758 2.6965480088 0.4073757494
328 1 254.5485760168 6.7413700272 0.4065450476
329 1 254.5451295366 1.3482740095 -0.5502297816
330 1 252.2098572907 5.3930960175 -0.5443475913
331 1 256.8769732165 0.0 -1.5079135236
332 1 259.2122675691 4.0448220184 -1.5087598615
333 1 256.8838478154 2.6965480088 0.4005392572
334 1 259.2191426154 6.7413700272 0.3998164152
335 1 259.2156953132 1.3482740095 -0.557187481
336 1 256.8804199568 5.3930960175 -0.5510671312
337 1 261.5475385666 0.0 -1.5149911817
338 1 263.8828292989 4.0448220184 -1.5157412383
339 1 261.5544135608 2.6965480088 0.3935714774
340 1 263.8897047405 6.7413700272 0.3929456135
341 1 263.8862566477 1.3482740095 -0.5642773522
342 1 261.550986108 5.3930960175 -0.5579228588
343 1 266.2181034278 0.0 -1.5222017607
344 1 268.5533944826 4.0448220184 -1.5228658874
345 1 266.224978807 2.6965480088 0.3864659494
346 1 268.5602702987 6.7413700272 0.3859262859
347 1 268.556821457 1.3482740095 -0.5715055021
348 1 266.2215517286 5.3930960175 -0.5649214008
349 1 270.8886638261 0.0 -1.5295509617
350 1 273.2239551513 4.0448220184 -1.5301393222
351 1 270.895539559 2.6965480088 0.3792168682
352 1 273.2308313316 6.7413700272 0.378752867
353 1 273.227381772 1.3482740095 -0.57887733
354 1 270.892112855 5.3930960175 -0.5720686871
355 1 275.5592276781 0.0 -1.5370438199
356 1 277.8945192428 4.0448220184 -1.5375663388
357 1 275.5661037647 2.6965480088 0.3718190949
358 1 277.9013957663 6.7413700272 0.371420467
359 1 277.8979455304 1.3482740095 -0.5863976004
360 1 275.5626774041 5.3930960175 -0.5793698776
361 1 280.2297870257 0.0 -1.5446847667
362 1 282.5650827516 4.0448220184 -1.5451510879
363 1 280.2366634348 2.6965480088 0.3642681769
364 1 282.5719595976 6.7413700272 0.3639249665
365 1 282.5685087272 1.3482740095 -0.5940704643
366 1 280.2332374071 5.3930960175 -0.5868294664
367 1 284.9003498062 0.0 -1.5524775996
368 1 287.2356417246 4.0448220184 -1.5528970547
369 1 284.9072265171 2.6965480088 0.3565603272
370 1 287.2425188722 6.7413700272 0.3562628908
371 1 287.2390673985 1.3482740095 -0.601899344
372 1 284.9038007911 5.3930960175 -0.5944512924
373 1 289.5709080511 0.0 -1.5604255123
374 1 291.9062040785 4.0448220184 -1.5608070791
375 1 289.5777850427 2.6965480088 0.3486923628
376 1 291.9130815071 6.7413700272 0.348431431
377 1 291.9096294716 1.3482740095 -0.6098872048
378 1 289.5743596185 5.3930960175 -0.6022384659
379 1 294.2414696872 0.0 -1.5685311159
380 1 296.5767618553 4.0448220184 -1.5688834082
381 1 294.2483469494 2.6965480088 0.3406617035
382 1 296.5836395542 6.7413700272 0.3404284232
383 1 296.5801869882 1.3482740095 -0.6180362832
384 1 294.2449217956 5.3930960175 -0.6101935048
385 1 298.9120307617 0.0 -1.5767964703
386 1 301.2473230024 4.0448220184 -1.5771277067
387 1 298.9189082735 2.6965480088 0.3324663727
388 1 301.2542009408 6.7413700272 0.3322522967
389 1 301.2507478858 1.3482740095 -0.626348379
390 1 298.9154833694 5.3930960175 -0.6183183438
391 1 303.5825872692 0.0 -1.5852231047
392 1 305.917883536 4.0448220184 -1.5855411083
393 1 303.5894650307 2.6965480088 0.3241049244
394 1 305.9247617032 6.7413700272 0.3239020318
395 1 305.9213081904 1.3482740095 -0.6348247092
396 1 303.5860403554 5.3930960175 -0.6266142834
397 1 308.2531471784 0.0 -1.5938120699
398 1 310.588439492 4.0448220184 -1.5941242164
399 1 308.260025148 2.6965480088 0.3155764223
400 1 310.5953178673 6.7413700272 0.3153771604
401 1 310.5918639385 1.3482740095 -0.6434660126
402 1 308.2566007017 5.3930960175 -0.6350821767
403 1 312.9237025312 0.0 -1.6025639276
404 1 315.258998798 4.0448220184 -1.6028772184
405 1 312.9305806984 2.6965480088 0.3068804296
406 1 315.2658773709 6.7413700272 0.3066776411
407 1 315.262423057 1.3482740095 -0.6522725908
408 1 312.9271564497 5.3930960175 -0.6437223046
409 1 317.5942612441 0.0 -1.6114788337
410 1 319.9295535369 4.0448220184 -1.6117998021
411 1 317.601139609 2.6965480088 0.2980169149
412 1 319.9364322763 6.7413700272 0.297803952
413 1 319.9329776088 1.3482740095 -0.6612442982
414 1 317.5977155476 5.3930960175 -0.652534563
415 1 322.2648193952 0.0 -1.6205565077
416 1 324.6001116256 4.0448220184 -1.6208913227
417 1 322.2716979265 2.6965480088 0.2889863153
418 1 324.6069905419 6.7413700272 0.2887569154
419 1 324.6035355414 1.3482740095 -0.6703806355
420 1 322.2682740316 5.3930960175 -0.6615183589
421 1 326.9353729794 0.0 -1.6297963355
422 1 329.2706651474 4.0448220184 -1.6301507083
423 1 326.9422516668 2.6965480088 0.2797894109
424 1 329.2775441989 6.7413700272 0.2795377691
425 1 329.2740889176 1.3482740095 -0.6796806976
426 1 326.9388279279 5.3930960175 -0.6706727248
427 1 331.6059299655 0.0 -1.6391973705
428 1 333.9412220294 4.0448220184 -1.6395766069
429 1 331.6128087881 2.6965480088 0.2704272836
430 1 333.9481012161 6.7413700272 0.2701480215
431 1 333.9446456643 1.3482740095 -0.6891433192
432 1 331.6093851843 5.3930960175 -0.6799964124
433 1 336.2764823949 0.0 -1.6487583228
434 1 338.6117783288 4.0448220184 -1.6491673746
435 1 336.2833613423 2.6965480088 0.2609014108
436 1 338.61865763 6.7413700272 0.2605895452
437 1 338.6152018493 1.3482740095 -0.6987670128
438 1 336.2799378634 5.3930960175 -0.6894877779
439 1 340.9470382158 0.0 -1.6584776837
440 1 343.2823300612 4.0448220184 -1.6589210556
441 1 340.9539172776 2.6965480088 0.251213457
442 1 343.2892094664 6.7413700272 0.2508644312
443 1 343.2857534776 1.3482740095 -0.70855001
444 1 340.9504939132 5.3930960175 -0.6991449697
445 1 345.6175934956 0.0 -1.6683536641
446 1 347.9528851954 4.0448220184 -1.6688355484
447 1 345.6244726511 2.6965480088 0.2413653882
448 1 347.9597646838 6.7413700272 0.2409750308
449 1 347.9563085183 1.3482740095 -0.718490365
450 1 345.6210493803 5.3930960175 -0.708965855
451 1 350.2881442294 0.0 -1.6783842769
452 1 352.6234357835 4.0448220184 -1.6789084917
453 1 350.2950234785 2.6965480088 0.2313593684
454 1 352.6303153552 6.7413700272 0.2309238405
455 1 352.6268590231 1.3482740095 -0.7285858831
456 1 350.2916003013 5.3930960175 -0.7189480619
457 1 354.9586983961 0.0 -1.6885673479
458 1 357.2939897734 4.0448220184 -1.6891373573
459 1 354.965577718 2.6965480088 0.2211977279
460 1 357.3008694075 6.7413700272 0.2207135757
461 1 357.2974129402 1.3482740095 -0.7388342546
462 1 354.9621546137 5.3930960175 -0.7290890938
463 1 359.6292480479 0.0 -1.6989005155
464 1 361.9645432224 4.0448220184 -1.6995194821
465 1 359.6361274427 2.6965480088 0.2108830051
466 1 361.9714229085 6.7413700272 0.2103470868
467 1 361.9679663268 1.3482740095 -0.7492329517
468 1 359.6327043903 5.3930960175 -0.7393862562
469 1 364.2998011223 0.0 -1.7093813246
470 1 366.6350921563 4.0448220184 -1.7100520782
471 1 364.3066805796 2.6965480088 0.2004178215
472 1 366.6419718944 6.7413700272 0.1998273387
473 1 366.6385152087 1.3482740095 -0.7597793526
474 1 364.3032575792 5.3930960175 -0.7498367504
475 1 368.9703497234 0.0 -1.720007164
476 1 371.3056445234 4.0448220184 -1.7207322636
477 1 368.9772292222 2.6965480088 0.189804934
478 1 371.312524303 6.7413700272 0.1891573692
479 1 371.3090675445 1.3482740095 -0.7704707423
480 1 368.9738062739 5.3930960175 -0.7604376223
481 1 373.6409017783 0.0 -1.7307753498
482 1 375.9761924066 4.0448220184 -1.7315570528
483 1 373.6477813188 2.6965480088 0.1790472034
484 1 375.9830722071 6.7413700272 0.1783403406
485 1 375.9796153861 1.3482740095 -0.7813043014
486 1 373.6443584016 5.3930960175 -0.7711858756
487 1 378.3114533339 0.0 -1.7416830834
488 1 380.6467437333 4.0448220184 -1.742523429
489 1 378.3183328951 2.6965480088 0.1681475635
490 1 380.6536235649 6.7413700272 0.1673794157
491 1 380.6501667025 1.3482740095 -0.7922771483
492 1 378.3149100092 5.3930960175 -0.7820784311
493 1 382.9820004161 0.0 -1.7527275351
494 1 385.3172945814 4.0448220184 -1.7536282919
495 1 382.9888800085 2.6965480088 0.1571089999
496 1 385.3241744132 6.7413700272 0.1562778404
497 1 385.3207175297 1.3482740095 -0.8033863492
498 1 382.985457133 5.3930960175 -0.7931121051
499 1 387.6525509938 0.0 -1.7639058235
500 1 389.9878409667 4.0448220184 -1.7648685413
501 1 387.6594305862 2.6965480088 0.1459345193
502 1 389.9947207983 6.7413700272 0.1450388705
503 1 389.9912639045 1.3482740095 -0.8146289083
504 1 387.6560077211 5.3930960175 -0.8042837978
505 1 392.3230971189 0.0 -1.7752150249
506 1 394.6583908369 4.0448220184 -1.776241046
507 1 392.3299767322 2.6965480088 0.1346272007
508 1 394.6652706686 6.7413700272 0.1336657728
509 1 394.6618137749 1.3482740095 -0.8260018707
510 1 392.326553867 5.3930960175 -0.8155902633
511 1 -0.0038911421 8.0896440264 -1.080218488
512 1 2.3313641884 12.1344660447 -1.0907966914
513 1 0.002965605 10.7861920351 0.8232796369
514 1 2.3382206962 14.8310180172 0.812632263
515 1 2.334810138 9.4379180359 -0.1341680681
516 1 -4.8041744882e-04 13.4827440179 -0.1333696783
517 1 4.6666587282 8.0896440264 -1.0915922723
518 1 7.0019142874 12.1344660447 -1.1021057786
519 1 4.6735154753 10.7861920351 0.8119036159
520 1 7.0087707849 14.8310180172 0.8013200965
521 1 7.0053602476 9.4379180359 -0.1454752618
522 1 4.670069432 13.4827440179 -0.1447491011
523 1 9.3372051134 8.0896440264 -1.1028309925
524 1 11.6724609223 12.1344660447 -1.1132752137
525 1 9.3440618605 10.7861920351 0.8006645316
526 1 11.6793174093 14.8310180172 0.7901495273
527 1 11.6759068824 9.4379180359 -0.1566447282
528 1 9.3406158172 13.4827440179 -0.1559897147
529 1 14.0077559615 8.0896440264 -1.1139313092
530 1 16.3430120514 12.1344660447 -1.1243014392
531 1 14.014612719 10.7861920351 0.7895658587
532 1 16.3498685488 14.8310180172 0.7791242382
533 1 16.346458001 9.4379180359 -0.1676731071
534 1 14.0111666757 13.4827440179 -0.1670879091
535 1 18.6783033663 8.0896440264 -1.1248898829
536 1 21.0135637005 12.1344660447 -1.1351809073
537 1 18.6851601237 10.7861920351 0.7786110924
538 1 21.020420198 14.8310180172 0.7682479742
539 1 21.0170096294 9.4379180359 -0.1785569654
540 1 18.6817140909 13.4827440179 -0.1780400121
541 1 23.3488552547 8.0896440264 -1.1357034263
542 1 25.6841119167 12.1344660447 -1.1459100813
543 1 23.3557120435 10.7861920351 0.7678036764
544 1 25.6909684453 14.8310180172 0.7575244284
545 1 25.6875578352 9.4379180359 -0.1892929222
546 1 23.3522660209 13.4827440179 -0.1888424242
547 1 28.0194076841 8.0896440264 -1.1463686626
548 1 30.3546646687 12.1344660447 -1.156485455
549 1 28.0262645041 10.7861920351 0.7571470853
550 1 30.3615212285 14.8310180172 0.7469573043
551 1 30.3581105455 9.4379180359 -0.19987769
552 1 28.0228185128 13.4827440179 -0.1994915251
553 1 32.6899566806 8.0896440264 -1.1568823456
554 1 35.0252140187 12.1344660447 -1.1669035643
555 1 32.6968135421 10.7861920351 0.7466446897
556 1 35.0320706098 14.8310180172 0.7365502119
557 1 35.0286598539 9.4379180359 -0.2103079502
558 1 32.6933675924 13.4827440179 -0.2099837464
559 1 37.3605102023 8.0896440264 -1.1672413755
560 1 39.695767915 12.1344660447 -1.1771610595
561 1 37.3673671159 10.7861920351 0.7362997977
562 1 39.7026245581 14.8310180172 0.7263067299
563 1 39.6992136878 9.4379180359 -0.2205805403
564 1 37.3639212077 13.4827440179 -0.220315572
565 1 42.0310603326 8.0896440264 -1.1774426623
566 1 44.3663223835 12.1344660447 -1.1872546425
567 1 42.0379172982 10.7861920351 0.726115676
568 1 44.373179089 14.8310180172 0.7162303328
569 1 44.3697681043 9.4379180359 -0.2306923601
570 1 42.0344714526 13.4827440179 -0.2304835897
571 1 46.7016150092 8.0896440264 -1.1874832933
572 1 49.0368735021 12.1344660447 -1.1971811406
573 1 46.7084720475 10.7861920351 0.7160954143
574 1 49.0437302804 14.8310180172 0.7063244121
575 1 49.0403191396 9.4379180359 -0.2406404551
576 1 46.7050262747 13.4827440179 -0.2404844599
577 1 51.3721662942 8.0896440264 -1.1973604494
578 1 53.7074292085 12.1344660447 -1.2069375785
579 1 51.3790234262 10.7861920351 0.7062420399
580 1 53.7142860701 14.8310180172 0.6965921512
581 1 53.7108747525 9.4379180359 -0.2504220061
582 1 51.3755777366 13.4827440179 -0.2503149889
583 1 56.0427221672 8.0896440264 -1.2070715398
584 1 58.3779815548 12.1344660447 -1.2165210952
585 1 56.0495793928 10.7861920351 0.696558341
586 1 58.3848385203 14.8310180172 0.687036619
587 1 58.3814269947 9.4379180359 -0.2600343707
588 1 56.0461337863 13.4827440179 -0.2599721599
589 1 60.7132786226 8.0896440264 -1.2166141201
590 1 63.0485385095 12.1344660447 -1.225929069
591 1 60.7201359627 10.7861920351 0.6870469806
592 1 63.0553955895 14.8310180172 0.677660666
593 1 63.051983835 9.4379180359 -0.2694751769
594 1 60.7166904707 13.4827440179 -0.2694531223
595 1 65.3838317386 8.0896440264 -1.2259859846
596 1 67.7190960989 12.1344660447 -1.2351591387
597 1 65.3906892035 10.7861920351 0.6777103306
598 1 67.7259533141 14.8310180172 0.6684668617
599 1 67.7225412891 9.4379180359 -0.2787422194
600 1 65.3872438364 13.4827440179 -0.278755265
601 1 70.0543894424 8.0896440264 -1.2351851986
602 1 72.3896503697 12.1344660447 -1.2442091818
603 1 70.0612470529 10.7861920351 0.6685505447
604 1 72.3965077306 14.8310180172 0.6594575677
605 1 72.3930954143 9.4379180359 -0.2878335943
606 1 70.0578018316 13.4827440179 -0.2878762472
607 1 74.7249438068 8.0896440264 -1.2442101181
608 1 77.0602092699 12.1344660447 -1.2530774299
609 1 74.7318015735 10.7861920351 0.659569464
610 1 77.0670667972 14.8310180172 0.6506347606
611 1 77.0636541481 9.4379180359 -0.2967477619
612 1 74.728356508 13.4827440179 -0.2968139883
613 1 79.3955027798 8.0896440264 -1.2530594533
614 1 81.7307648618 12.1344660447 -1.2617624578
615 1 79.4023607129 10.7861920351 0.6507685762
616 1 81.737622566 14.8310180172 0.6420000632
617 1 81.7342095527 9.4379180359 -0.3054834635
618 1 79.3989158244 13.4827440179 -0.3055667927
619 1 84.0660623666 8.0896440264 -1.261732247
620 1 86.4013250832 12.1344660447 -1.2702632562
621 1 84.0729205077 10.7861920351 0.6421490155
622 1 86.4081829851 14.8310180172 0.6335547031
623 1 86.4047695765 9.4379180359 -0.3140399084
624 1 84.0694757961 13.4827440179 -0.3141333494
625 1 88.7366186348 8.0896440264 -1.2702279896
626 1 91.0718819965 12.1344660447 -1.2785792532
627 1 88.743476984 10.7861920351 0.6337115098
628 1 91.0787401168 14.8310180172 0.6252994606
629 1 91.0753262712 9.4379180359 -0.3224166701
630 1 88.7400324803 13.4827440179 -0.3225127328
631 1 93.407179522 8.0896440264 -1.278546608
632 1 95.742443539 12.1344660447 -1.2867103756
633 1 93.4140380897 10.7861920351 0.6254562569
634 1 95.749301909 14.8310180172 0.6172345853
635 1 95.7458875849 9.4379180359 -0.3306138734
636 1 93.4105938253 13.4827440179 -0.3307045369
637 1 98.0777370593 8.0896440264 -1.2866884979
638 1 100.4130057683 12.1344660447 -1.2946570504
639 1 98.0845958768 10.7861920351 0.6173830174
640 1 100.4198643879 14.8310180172 0.6093597964
641 1 100.4164495437 9.4379180359 -0.338632101
642 1 98.081151862 13.4827440179 -0.3387088346
643 1 102.7482992157 8.0896440264 -1.2946546265
644 1 105.0835646684 12.1344660447 -1.3024203384
645 1 102.7551583036 10.7861920351 0.6094909801
646 1 105.090423569 14.8310180172 0.6016741991
647 1 105.0870081733 9.4379180359 -0.3464725283
648 1 102.7517145489 13.4827440179 -0.346526323
649 1 107.4188619859 8.0896440264 -1.3024465231
650 1 109.7541282084 12.1344660447 -1.3100018937