# LAMMPS data file written by OVITO Basic 3.3.0
74970 atoms
1 atom types
0.0 380.4133399668 xlo xhi
0.0 379.8312582376 ylo yhi
0.0 8.2218221688 zlo zhi
0.0 0.0296165249 0.0 xy xz yz

Masses

1 1.008  # H

Atoms  # atomic

1 1 -0.0036959524 0.0 -1.0260312053
2 1 2.2339926315 3.8758285463 -1.0359769013
3 1 0.002874767 2.5838856941 0.7980629441
4 1 2.2405631316 6.4597142404 0.7880550945
5 1 2.2372941601 1.291942852 -0.1194433818
6 1 -4.2683140158e-04 5.1677713883 -0.1184911404
7 1 4.471717411 0.0 -1.0369295712
8 1 6.7094062241 3.8758285463 -1.0468112595
9 1 4.4782881404 2.5838856941 0.7871655052
10 1 6.7159767243 6.4597142404 0.7772210552
11 1 6.7127077429 1.291942852 -0.1302790558
12 1 4.474986542 5.1677713883 -0.1293886491
13 1 8.9471274249 0.0 -1.0477038892
14 1 11.1848164774 3.8758285463 -1.0575173829
15 1 8.9536981643 2.5838856941 0.7763938987
16 1 11.1913869874 6.4597142404 0.766517105
17 1 11.188117986 1.291942852 -0.1409883392
18 1 8.950396566 5.1677713883 -0.1401585211
19 1 13.4225416856 0.0 -1.0583513678
20 1 15.6602310071 3.8758285463 -1.0680922908
21 1 13.4291124449 2.5838856941 0.7657510553
22 1 15.6668015371 6.4597142404 0.7559463739
23 1 15.6635324959 1.291942852 -0.1515684109
24 1 13.4258108664 5.1677713883 -0.1507977059
25 1 17.8979526167 0.0 -1.0688692061
26 1 20.1356460154 3.8758285463 -1.0785330027
27 1 17.9045233959 2.5838856941 0.755239896
28 1 20.1422165653 6.4597142404 0.745511952
29 1 20.1389474841 1.291942852 -0.1620164098
30 1 17.9012218374 5.1677713883 -0.1613031435
31 1 22.3733678343 0.0 -1.0792546626
32 1 24.611057724 3.8758285463 -1.0888365881
33 1 22.3799386434 2.5838856941 0.7448632915
34 1 24.6176283038 6.4597142404 0.7352169596
35 1 24.6143591529 1.291942852 -0.1723295548
36 1 22.3766371148 5.1677713883 -0.171671813
37 1 26.8487835402 0.0 -1.0895050759
38 1 29.0864737391 3.8758285463 -1.0990001856
39 1 26.8553543892 2.5838856941 0.7346240928
40 1 29.0930443588 6.4597142404 0.7250644072
41 1 29.089775128 1.291942852 -0.1825051046
42 1 26.8520529005 5.1677713883 -0.1819007441
43 1 31.3241959267 0.0 -1.0996177742
44 1 33.5618864645 3.8758285463 -1.1090209644
45 1 31.3307668256 2.5838856941 0.7245250613
46 1 33.5684571241 6.4597142404 0.7150572554
47 1 33.5651877937 1.291942852 -0.1925404175
48 1 31.3274653867 5.1677713883 -0.1919870059
49 1 35.7996126196 0.0 -1.1095902456
50 1 38.0373035162 3.8758285463 -1.1188962129
51 1 35.8061835783 2.5838856941 0.7145688784
52 1 38.0438742456 6.4597142404 0.705198395
53 1 38.0406047856 1.291942852 -0.2024329215
54 1 35.8028821892 5.1677713883 -0.2019277377
55 1 40.2750260329 0.0 -1.1194200578
56 1 42.5127210963 3.8758285463 -1.1286232996
57 1 40.2815970614 2.5838856941 0.7047581659
58 1 42.5192918855 6.4597142404 0.6954906173
59 1 42.516022296 1.291942852 -0.2121801546
60 1 40.2782957321 5.1677713883 -0.2117201978
61 1 44.7504437725 0.0 -1.129104898
62 1 46.9881354166 3.8758285463 -1.1381997422
63 1 44.7570148807 2.5838856941 0.6950953661
64 1 46.9947062957 6.4597142404 0.6859365938
65 1 46.9914365267 1.291942852 -0.2217797939
66 1 44.7537136311 5.1677713883 -0.2213617448
67 1 49.2258582325 0.0 -1.1386425632
68 1 51.4635540934 3.8758285463 -1.1476232282
69 1 49.2324294304 2.5838856941 0.6855828315
70 1 51.4701250719 6.4597142404 0.6765387966
71 1 51.4668551136 1.291942852 -0.2312296865
72 1 49.2291282706 5.1677713883 -0.2308498765
73 1 53.7012770386 0.0 -1.1480310996
74 1 55.9389695302 3.8758285463 -1.1568915743
75 1 53.7078483462 2.5838856941 0.6762226954
76 1 55.9455406085 6.4597142404 0.6672995985
77 1 55.9422704407 1.291942852 -0.2405278284
78 1 53.7045472861 5.1677713883 -0.2401822603
79 1 58.1766963832 0.0 -1.1572686729
80 1 60.4143893333 3.8758285463 -1.1660028368
81 1 58.1832678004 2.5838856941 0.6670169515
82 1 60.4209605312 6.4597142404 0.6582211025
83 1 60.4176901242 1.291942852 -0.2496724356
84 1 58.17996685 5.1677713883 -0.2493567529
85 1 62.6521124779 0.0 -1.1663536982
86 1 64.8898097046 3.8758285463 -1.174955311
87 1 62.6586840248 2.5838856941 0.6579673642
88 1 64.896381032 6.4597142404 0.6493052028
89 1 64.8931103659 1.291942852 -0.2586619725
90 1 62.655383194 5.1677713883 -0.2583714206
91 1 67.127532929 0.0 -1.1752848298
92 1 69.3652268559 3.8758285463 -1.1837475315
93 1 67.1341046153 2.5838856941 0.6490753989
94 1 69.371798323 6.4597142404 0.6405535442
95 1 69.3685273678 1.291942852 -0.2674951437
96 1 67.130803934 5.1677713883 -0.2672245985
97 1 71.6029501402 0.0 -1.1840610109
98 1 73.8406483936 3.8758285463 -1.1923783618
99 1 71.6095219762 2.5838856941 0.6403423215
100 1 73.8472200202 6.4597142404 0.6319674324
101 1 73.8439487359 1.291942852 -0.2761709619
102 1 71.6062214443 5.1677713883 -0.275914891
103 1 76.0783717177 0.0 -1.1926814741
104 1 78.3160667014 3.8758285463 -1.2008469448
105 1 76.0849437231 2.5838856941 0.6317690293
106 1 78.3226385074 6.4597142404 0.6235478845
107 1 78.3193668743 1.291942852 -0.2846887296
108 1 76.0816433607 5.1677713883 -0.2844412215
109 1 80.5537938434 0.0 -1.2011457807
110 1 82.7914894152 3.8758285463 -1.2091528319
111 1 80.5603660382 2.5838856941 0.6233560805
112 1 82.7980614106 6.4597142404 0.6152954984
113 1 82.7947893888 1.291942852 -0.2930481675
114 1 80.5570658554 5.1677713883 -0.2928028625
115 1 85.0292127294 0.0 -1.2094538907
116 1 87.2669088993 3.8758285463 -1.2172959732
117 1 85.0357851235 2.5838856941 0.6151037044
118 1 87.273481104 6.4597142404 0.6072105034
119 1 87.2702086636 1.291942852 -0.3012493055
120 1 85.03248515 5.1677713883 -0.3009994549
121 1 89.5046359915 0.0 -1.2176061133
122 1 91.7423327695 3.8758285463 -1.2252767175
123 1 89.511208605 2.5838856941 0.6070116516
124 1 91.7489052036 6.4597142404 0.5992926504
125 1 91.7456323144 1.291942852 -0.3092926819
126 1 89.5079088508 5.1677713883 -0.3090310984
127 1 93.9800560039 0.0 -1.2256032459
128 1 96.2177572278 3.8758285463 -1.2330959123
129 1 93.9866288466 2.5838856941 0.5990792944
130 1 96.2243299112 6.4597142404 0.5915412314
131 1 96.2210565336 1.291942852 -0.3171792041
132 1 93.9833293317 5.1677713883 -0.3168983016
133 1 98.4554803826 0.0 -1.2334465047
134 1 100.6931784565 3.8758285463 -1.2407548734
135 1 98.4620534745 2.5838856941 0.5913054762
136 1 100.6997513988 6.4597142404 0.5839550304
137 1 100.6964775029 1.291942852 -0.3249103072
138 1 98.4587542087 5.1677713883 -0.3246021209
139 1 102.9309052894 0.0 -1.2411376142
140 1 105.1686040611 3.8758285463 -1.2482554947
141 1 102.9374786506 2.5838856941 0.5836885823
142 1 105.1751772927 6.4597142404 0.5765322332
143 1 105.1719028286 1.291942852 -0.3324879352
144 1 102.934179654 5.1677713883 -0.3321441015
145 1 107.4063269467 0.0 -1.2486787874
146 1 109.6440264261 3.8758285463 -1.2556001988
147 1 107.4129005869 2.5838856941 0.5762264094
148 1 109.6505999468 6.4597142404 0.5692704771
149 1 109.6473248944 1.291942852 -0.3399145802
150 1 107.4096018793 5.1677713883 -0.3395263369
151 1 111.8817529402 0.0 -1.2560728355
152 1 114.1194531374 3.8758285463 -1.2627920158
153 1 111.8883268894 2.5838856941 0.5689162264
154 1 114.126026977 6.4597142404 0.5621667617
155 1 114.1227512967 1.291942852 -0.3471932828
156 1 111.885028481 5.1677713883 -0.3467515584
157 1 116.3571756441 0.0 -1.2633230779
158 1 118.5948803969 3.8758285463 -1.2698346044
159 1 116.3637499123 2.5838856941 0.5617546738
160 1 118.6014545754 6.4597142404 0.5552174385
161 1 118.5981782172 1.291942852 -0.3543276912
162 1 116.3604518228 5.1677713883 -0.3538230855
163 1 120.8326026544 0.0 -1.2704334821
164 1 123.0703043668 3.8758285463 -1.2767322309
165 1 120.8391772616 2.5838856941 0.5547378139
166 1 123.0768788942 6.4597142404 0.5484181911
167 1 123.0736018482 1.291942852 -0.3613220721
168 1 120.835879521 5.1677713883 -0.3607448957
169 1 125.3080263452 0.0 -1.2774085541
170 1 127.5457326531 3.8758285463 -1.2834898598
171 1 125.3146013112 2.5838856941 0.5478610415
172 1 127.5523075593 6.4597142404 0.5417640253
173 1 127.5490297656 1.291942852 -0.3681812701
174 1 125.3113039295 5.1677713883 -0.3675216143
175 1 129.7834543124 0.0 -1.2842534472
176 1 132.0211576098 3.8758285463 -1.2901130733
177 1 129.7900296374 2.5838856941 0.5411191329
178 1 132.0277329048 6.4597142404 0.5352492092
179 1 132.0244543436 1.291942852 -0.3749108176
180 1 129.7867326344 5.1677713883 -0.3741585744
181 1 134.2588827284 0.0 -1.2909739433
182 1 136.4965868331 3.8758285463 -1.2966081816
183 1 134.265458442 2.5838856941 0.5345061969
184 1 136.5031625369 6.4597142404 0.5288673431
185 1 136.4998831682 1.291942852 -0.3815168455
186 1 134.2621618378 5.1677713883 -0.3806617772
187 1 138.7343077649 0.0 -1.2975764125
188 1 140.9720165051 3.8758285463 -1.3029821328
189 1 138.7408838872 2.5838856941 0.5280157039
190 1 140.9785926274 6.4597142404 0.5226112895
191 1 140.9753124115 1.291942852 -0.3880061422
192 1 138.7375876917 5.1677713883 -0.3870378915
193 1 143.2097370081 0.0 -1.3040678524
194 1 145.4474427677 3.8758285463 -1.3092425028
195 1 143.2163135491 2.5838856941 0.5216404569
196 1 145.4540193387 6.4597142404 0.5164732331
197 1 145.4507382555 1.291942852 -0.3943860944
198 1 143.2130177824 5.1677713883 -0.3932943339
199 1 147.6851628122 0.0 -1.3104558492
200 1 149.9228732271 3.8758285463 -1.3153975955
201 1 147.6917397819 2.5838856941 0.5153726603
202 1 149.9294502466 6.4597142404 0.5104446507
203 1 149.9261682662 1.291942852 -0.4006647167
204 1 147.6884444636 5.1677713883 -0.399439139
205 1 152.1605927632 0.0 -1.316748577
206 1 154.3983002174 3.8758285463 -1.3214562229
207 1 152.1671701815 2.5838856941 0.5092038611
208 1 154.4048777155 6.4597142404 0.5045163814
209 1 154.4015947981 1.291942852 -0.4068505821
210 1 152.1638753218 5.1677713883 -0.4054809994
211 1 156.6360230332 0.0 -1.3229547482
212 1 158.8737313249 3.8758285463 -1.327427885
213 1 156.64260091 2.5838856941 0.5031250474
214 1 158.8803093014 6.4597142404 0.4986786461
215 1 158.8770254369 1.291942852 -0.4129528218
216 1 156.6393065188 5.1677713883 -0.4114292456
217 1 161.1114497744 0.0 -1.3290835838
218 1 163.3491589133 3.8758285463 -1.3333225207
219 1 161.1180281197 2.5838856941 0.4971266995
220 1 163.3557373783 6.4597142404 0.4929210874
221 1 163.352452537 1.291942852 -0.4189810552
222 1 161.114734207 5.1677713883 -0.4172937762
223 1 165.5868805727 0.0 -1.3351447731
224 1 167.824590539 3.8758285463 -1.3391506662
225 1 165.5934593965 2.5838856941 0.4911987193
226 1 167.8311695124 6.4597142404 0.4872328099
227 1 167.8278836842 1.291942852 -0.4249454105
228 1 165.5901659822 5.1677713883 -0.4230850384
229 1 170.0623077624 0.0 -1.3411484242
230 1 172.3000223741 3.8758285463 -1.3449231976
231 1 170.0688870747 2.5838856941 0.4853306498
232 1 172.3066018658 6.4597142404 0.4816024592
233 1 172.3033150108 1.291942852 -0.4308563545
234 1 170.0655941588 5.1677713883 -0.4288139077
235 1 174.5377389197 0.0 -1.347105024
236 1 176.7754505607 3.8758285463 -1.350651399
237 1 174.5443187303 2.5838856941 0.4795115556
238 1 176.7820305607 6.4597142404 0.4760183127
239 1 176.778742699 1.291942852 -0.4367247529
240 1 174.5410263229 5.1677713883 -0.4344917383
241 1 179.0131702263 0.0 -1.3530253384
242 1 181.2508826648 3.8758285463 -1.3563468439
243 1 179.0197505355 2.5838856941 0.4737302619
244 1 181.2574631933 6.4597142404 0.4704683082
245 1 181.2541742848 1.291942852 -0.4425617207
246 1 179.0164586365 5.1677713883 -0.4401301933
247 1 183.4885978048 0.0 -1.3589203827
248 1 185.7263110408 3.8758285463 -1.362021355
249 1 183.4951786223 2.5838856941 0.4679752851
250 1 185.7328920976 6.4597142404 0.4649401348
251 1 185.7296021524 1.291942852 -0.4483785721
252 1 183.4918872516 5.1677713883 -0.4457412149
253 1 187.9640292412 0.0 -1.3648013315
254 1 190.2017432646 3.8758285463 -1.3676868644
255 1 187.9706105671 2.5838856941 0.4622349919
256 1 190.2083248398 6.4597142404 0.4594213518
257 1 190.2050338578 1.291942852 -0.4541868007
258 1 187.9673197047 5.1677713883 -0.4513369449
259 1 192.4394568994 0.0 -1.3706794592
260 1 194.6771754686 3.8758285463 -1.3733553745
261 1 192.4460387238 2.5838856941 0.4564976393
262 1 194.683757582 6.4597142404 0.4538994385
263 1 194.6804655533 1.291942852 -0.4599979101
264 1 192.4427483898 5.1677713883 -0.4569295946
265 1 196.9148883058 0.0 -1.3765660601
266 1 199.1526038147 3.8758285463 -1.3790388672
267 1 196.9214706386 2.5838856941 0.4507514647
268 1 199.1591864464 6.4597142404 0.4483618848
269 1 199.1558933811 1.291942852 -0.4658233941
270 1 196.9181808329 5.1677713883 -0.4625314452
271 1 201.3903158544 0.0 -1.3824723489
272 1 203.628035859 3.8758285463 -1.3847492449
273 1 201.3968986855 2.5838856941 0.444984765
274 1 203.6346190191 6.4597142404 0.4427963295
275 1 203.631324927 1.291942852 -0.4716746766
276 1 201.3936093883 5.1677713883 -0.4681546783
277 1 205.8657470913 0.0 -1.3884094503
278 1 208.1034639758 3.8758285463 -1.3904981808
279 1 205.8723304309 2.5838856941 0.4391859965
280 1 208.1100476443 6.4597142404 0.4371905712
281 1 208.1067525355 1.291942852 -0.4775629722
282 1 205.8690416421 5.1677713883 -0.4738113557
283 1 210.3411781688 0.0 -1.3943882499
284 1 212.5788957112 3.8758285463 -1.3962971287
285 1 210.3477619968 2.5838856941 0.4333437853
286 1 212.585479888 6.4597142404 0.4315326876
287 1 212.5821837723 1.291942852 -0.4834992961
288 1 210.3444737163 5.1677713883 -0.4795132802
289 1 214.8166052688 0.0 -1.4004193942
290 1 217.0543272272 3.8758285463 -1.4021571935
291 1 214.8231895753 2.5838856941 0.4274470962
292 1 217.0609119126 6.4597142404 0.4258111551
293 1 217.0576148099 1.291942852 -0.4894943145
294 1 214.8199017932 5.1677713883 -0.4852719553
295 1 219.2920359375 0.0 -1.4065131705
296 1 221.5297546762 3.8758285463 -1.4080890713
297 1 219.2986207325 2.5838856941 0.4214852132
298 1 221.5363398499 6.4597142404 0.4200148289
299 1 221.5330417804 1.291942852 -0.4955583249
300 1 219.2953334389 5.1677713883 -0.4910985259
301 1 223.7674625491 0.0 -1.4126794877
302 1 226.005185634 3.8758285463 -1.41410301
303 1 223.7740478026 2.5838856941 0.4154478486
304 1 226.0117712763 6.4597142404 0.4141330827
305 1 226.0084722697 1.291942852 -0.5017012061
306 1 223.7707609775 5.1677713883 -0.4970036384
307 1 228.2428926696 0.0 -1.4189278258
308 1 230.4806124548 3.8758285463 -1.4202087286
309 1 228.2494783717 2.5838856941 0.4093252035
310 1 230.4871985657 6.4597142404 0.4081558281
311 1 230.4838986419 1.291942852 -0.5079323484
312 1 228.2461920151 5.1677713883 -0.5029975103
313 1 232.7183224511 0.0 -1.4252671463
314 1 234.9560427248 3.8758285463 -1.4264154083
315 1 232.7249085918 2.5838856941 0.4031079771
316 1 234.9626292843 6.4597142404 0.4020736052
317 1 234.9593284734 1.291942852 -0.5142606139
318 1 232.7216226938 5.1677713883 -0.5090897316
319 1 237.1937480758 0.0 -1.4317058927
320 1 239.4314687982 3.8758285463 -1.4327315919
321 1 237.2003346452 2.5838856941 0.3967874572
322 1 239.4380557862 6.4597142404 0.3958775521
323 1 239.434754118 1.291942852 -0.5206942764
324 1 237.1970491758 5.1677713883 -0.5152893037
325 1 241.6691771197 0.0 -1.43825195
326 1 243.9068982408 3.8758285463 -1.4391652244
327 1 241.6757641077 2.5838856941 0.3903555092
328 1 243.9134856474 6.4597142404 0.3895595142
329 1 243.9101831618 1.291942852 -0.5272410714
330 1 241.672479057 5.1677713883 -0.5216046401
331 1 246.1446019468 0.0 -1.4449125953
332 1 248.3823272348 3.8758285463 -1.445723573
333 1 246.1511893236 2.5838856941 0.383804647
334 1 248.3889150402 6.4597142404 0.3831120055
335 1 248.3856117671 1.291942852 -0.5339080767
336 1 246.1479046817 5.1677713883 -0.5280434364
337 1 250.6200301434 0.0 -1.4516945474
338 1 252.8577519622 3.8758285463 -1.4524132665
339 1 250.626617899 2.5838856941 0.3771279824
340 1 252.8643401465 6.4597142404 0.3765282672
341 1 252.8610361158 1.291942852 -0.5407017317
342 1 250.6233336458 5.1677713883 -0.5346127302
343 1 255.0954578714 0.0 -1.458603867
344 1 257.3331799993 3.8758285463 -1.4592402463
345 1 255.1020459959 2.5838856941 0.3703193248
346 1 257.3397685424 6.4597142404 0.3698022086
347 1 257.336463794 1.291942852 -0.5476278881
348 1 255.0987621015 5.1677713883 -0.5413188718
349 1 259.570881323 0.0 -1.4656460169
350 1 261.80860371 3.8758285463 -1.4662097956
351 1 259.5774697864 2.5838856941 0.3633731117
352 1 261.8151926021 6.4597142404 0.3629284965
353 1 261.8118871658 1.291942852 -0.5546917195
354 1 259.5741862508 5.1677713883 -0.5481675431
355 1 264.046308084 0.0 -1.4728258219
356 1 266.2840307005 3.8758285463 -1.4733265099
357 1 264.0528968863 2.5838856941 0.3562844188
358 1 266.2906199214 6.4597142404 0.3559024457
359 1 266.2873138371 1.291942852 -0.5618977915
360 1 264.0496136798 5.1677713883 -0.5551636884
361 1 268.5217305288 0.0 -1.4801475285
362 1 270.7594571326 3.8758285463 -1.4805943667
363 1 268.5283196401 2.5838856941 0.3490489796
364 1 270.7660466626 6.4597142404 0.3487201087
365 1 270.7627399702 1.291942852 -0.5692500816
366 1 268.5250367526 5.1677713883 -0.562311614
367 1 272.9971562631 0.0 -1.4876147753
368 1 275.2348792184 3.8758285463 -1.4880167055
369 1 273.0037456636 2.5838856941 0.3416631655
370 1 275.2414690375 6.4597142404 0.341378156
371 1 275.238161767 1.291942852 -0.5767518692
372 1 273.0004630651 5.1677713883 -0.5696149986
373 1 277.4725776512 0.0 -1.4952306226
374 1 279.710304544 3.8758285463 -1.4955962475
375 1 277.4791673207 2.5838856941 0.3341239262
376 1 279.7168946323 6.4597142404 0.3338738962
377 1 279.7135868234 1.291942852 -0.5844059955
378 1 277.4758850114 5.1677713883 -0.5770768225
379 1 281.9480022889 0.0 -1.5029975725
380 1 284.1857254835 3.8758285463 -1.5033351459
381 1 281.9545922177 2.5838856941 0.3264287895
382 1 284.1923158309 6.4597142404 0.3262052556
383 1 284.1890075137 1.291942852 -0.5922146038
384 1 281.9513101675 5.1677713883 -0.5846994982
385 1 286.4234263885 0.0 -1.5109175987
386 1 288.6611496527 3.8758285463 -1.5112349959
387 1 286.4300165564 2.5838856941 0.3185758612
388 1 288.6677402294 6.4597142404 0.3183707293
389 1 288.6644314438 1.291942852 -0.6001794185
390 1 286.4267347455 5.1677713883 -0.5924848798
391 1 290.8988461118 0.0 -1.5189921666
392 1 293.1365732339 3.8758285463 -1.5192968839
393 1 290.905436519 2.5838856941 0.3105637559
394 1 293.1431640299 6.4597142404 0.3103693402
395 1 293.1398548056 1.291942852 -0.608301606
396 1 290.9021549274 5.1677713883 -0.6004342135
397 1 295.3742690947 0.0 -1.5272222831
398 1 297.6119924289 3.8758285463 -1.5275213881
399 1 295.3808597014 2.5838856941 0.3023915764
400 1 297.6185834243 6.4597142404 0.3022006396
401 1 297.6152738012 1.291942852 -0.6165818741
402 1 295.3775783291 5.1677713883 -0.6085483165
403 1 299.8496877116 0.0 -1.5356084865
404 1 302.0874148337 3.8758285463 -1.5359086879
405 1 299.8562785076 2.5838856941 0.2940589039
406 1 302.0940060185 6.4597142404 0.2938645879
407 1 302.0906960266 1.291942852 -0.6250205116
408 1 299.8529973248 5.1677713883 -0.6168274581
409 1 304.3251095483 0.0 -1.5441509261
410 1 306.5628328624 3.8758285463 -1.5444584843
411 1 304.3317005337 2.5838856941 0.2855657087
412 1 306.5694242067 6.4597142404 0.2853616434
413 1 306.5661138759 1.291942852 -0.6336173793
414 1 304.3284195302 5.1677713883 -0.6252715385
415 1 308.8005308466 0.0 -1.552849333
416 1 311.0382541009 3.8758285463 -1.5531701593
417 1 308.8071219915 2.5838856941 0.2769124093
418 1 311.0448456147 6.4597142404 0.2766925938
419 1 311.0415349649 1.291942852 -0.6423719986
420 1 308.8038411475 5.1677713883 -0.6338799896
421 1 313.2759477687 0.0 -1.561703119
422 1 315.5136709634 3.8758285463 -1.562042686
423 1 313.2825390632 2.5838856941 0.2680997534
424 1 315.5202626067 6.4597142404 0.2678586252
425 1 315.5169516877 1.291942852 -0.6512835022
426 1 313.2792583687 5.1677713883 -0.6426518844
427 1 317.7513679506 0.0 -1.5707113768
428 1 319.9890910455 3.8758285463 -1.5710747687
429 1 317.7579593747 2.5838856941 0.2591287776
430 1 319.9956828185 6.4597142404 0.2588611832
431 1 319.9923716403 1.291942852 -0.6603507736
432 1 317.7546788098 5.1677713883 -0.6515860264
433 1 322.2267837663 0.0 -1.5798728706
434 1 324.4645105694 3.8758285463 -1.5802648322
435 1 322.2333753099 2.5838856941 0.2500008978
436 1 324.471102452 6.4597142404 0.2497020619
437 1 324.4677910546 1.291942852 -0.6695723874
438 1 322.2300948647 5.1677713883 -0.6606808407
439 1 326.7022028318 0.0 -1.5891861547
440 1 328.9399257172 3.8758285463 -1.5896110024
441 1 326.708794485 2.5838856941 0.2407177085
442 1 328.9465176995 6.4597142404 0.2403832652
443 1 328.9432061026 1.291942852 -0.678946649
444 1 326.7055141495 5.1677713883 -0.6699345532
445 1 331.1776213787 0.0 -1.5986495147
446 1 333.4153441247 3.8758285463 -1.5991112658
447 1 331.1842131217 2.5838856941 0.2312810941
448 1 333.4219361867 6.4597142404 0.2309070459
449 1 333.4186244204 1.291942852 -0.6884716939
450 1 331.1809328758 5.1677713883 -0.6793451199
451 1 335.6530355695 0.0 -1.6082610464
452 1 337.890758176 3.8758285463 -1.6087633594
453 1 335.6596274023 2.5838856941 0.2216931278
454 1 337.8973503177 6.4597142404 0.2212757963
455 1 337.8940383919 1.291942852 -0.6981454193
456 1 335.6563472461 5.1677713883 -0.6889102682
457 1 340.1284530499 0.0 -1.6180186667
458 1 342.3661754868 3.8758285463 -1.618564861
459 1 340.1350449524 2.5838856941 0.2119560426
460 1 342.3727676885 6.4597142404 0.2114921184
461 1 342.3694556331 1.291942852 -0.7079656118
462 1 340.131764866 5.1677713883 -0.6986276058
463 1 344.603866204 0.0 -1.6279201125
464 1 346.8415922795 3.8758285463 -1.6285132186
465 1 344.6104581764 2.5838856941 0.202072271
466 1 346.8481845309 6.4597142404 0.2015587435
467 1 346.8448723659 1.291942852 -0.7179298493
468 1 344.6071781398 5.1677713883 -0.7084945507
469 1 349.0792826378 0.0 -1.6379630313
470 1 351.3170047457 3.8758285463 -1.6386057607
471 1 349.0858746699 2.5838856941 0.1920443249
472 1 351.3235970469 6.4597142404 0.1914785126
473 1 351.3202847823 1.291942852 -0.7280356195
474 1 349.0825946832 5.1677713883 -0.7185084212
475 1 353.554694785 0.0 -1.648144921
476 1 355.7924205016 3.8758285463 -1.6488397258
477 1 353.561286857 2.5838856941 0.1818748459
478 1 355.7990128426 6.4597142404 0.1812543365
479 1 355.7957005082 1.291942852 -0.7382803207
480 1 353.5580069201 5.1677713883 -0.7286663865
481 1 358.0301102418 0.0 -1.6584632098
482 1 360.267831961 3.8758285463 -1.6592122532
483 1 358.0367023537 2.5838856941 0.1715665755
484 1 360.2744243221 6.4597142404 0.1708892456
485 1 360.2711119277 1.291942852 -0.7486612516
486 1 358.0334224467 5.1677713883 -0.7389655756
487 1 362.5055252202 0.0 -1.6689152162
488 1 364.74324672 3.8758285463 -1.6697204519
489 1 362.5121173519 2.5838856941 0.1611223247
490 1 364.7498391109 6.4597142404 0.1603862703
491 1 364.7465266768 1.291942852 -0.7591756507
492 1 362.5088374748 5.1677713883 -0.7494030379
493 1 366.980935912 0.0 -1.6794982285
494 1 369.2186610204 3.8758285463 -1.6803613515
495 1 366.9875280737 2.5838856941 0.1505449545
496 1 369.2252534115 6.4597142404 0.149748521
497 1 369.2219409573 1.291942852 -0.769820707
498 1 366.9842482066 5.1677713883 -0.7599757229
499 1 371.4563499533 0.0 -1.6902094857
500 1 373.6940710445 3.8758285463 -1.691131981
501 1 371.4629421149 2.5838856941 0.1398373459
502 1 373.7006634354 6.4597142404 0.1389791175
503 1 373.6973509713 1.291942852 -0.7805935497
504 1 371.4596622578 5.1677713883 -0.7706806601
505 1 375.931759728 0.0 -1.7010461864
506 1 378.1694844078 3.8758285463 -1.7020293401
507 1 375.9383519097 2.5838856941 0.1290024493
508 1 378.1760767988 6.4597142404 0.1280811901
509 1 378.1727643348 1.291942852 -0.7914913475
510 1 375.9350720525 5.1677713883 -0.7815147392
511 1 -0.0037285694 7.7516570825 -1.0350867438
512 1 2.2339593267 11.6274856286 -1.0452229877
513 1 0.0028417015 10.3355427766 0.7888828492
514 1 2.2405293683 14.2113751209 0.7786803247
515 1 2.2372613039 9.0435999345 -0.1285624994
516 1 -4.6034551181e-04 12.9194322788 -0.1277974665
517 1 4.4716847941 7.7516570825 -1.0459853291
518 1 6.7093729094 11.6274856286 -1.0560595789
519 1 4.4782550649 10.3355427766 0.7779821206
520 1 6.715942941 14.2113751209 0.7678407828
521 1 6.7126748966 9.0435999345 -0.1393972763
522 1 4.474952998 12.9194322788 -0.1387014547
523 1 8.947094818 7.7516570825 -1.0567544933
524 1 11.1847831726 11.6274856286 -1.0667623528
525 1 8.9536650888 10.3355427766 0.7672126075
526 1 11.1913531942 14.2113751209 0.7571369222
527 1 11.1880851598 9.0435999345 -0.1501000802
528 1 8.9503630219 12.9194322788 -0.1494724332
529 1 13.4225091184 7.7516570825 -1.0673910365
530 1 15.6601977422 11.6274856286 -1.0773279004
531 1 13.4290793993 10.3355427766 0.7565776393
532 1 15.6667677738 14.2113751209 0.7465722718
533 1 15.6634997194 9.0435999345 -0.1606676912
534 1 13.4257773323 12.9194322788 -0.1601069429
535 1 17.8979201194 7.7516570825 -1.0778917588
536 1 20.1356128102 11.6274856286 -1.0877528222
537 1 17.9044904001 10.3355427766 0.7460805654
538 1 20.1421828418 14.2113751209 0.7361504203
539 1 20.1389147675 9.0435999345 -0.1710968197
540 1 17.9011883432 12.9194322788 -0.1706014648
541 1 22.3733354167 7.7516570825 -1.0882535102
542 1 24.6110245887 11.6274856286 -1.0980337292
543 1 22.3799057274 10.3355427766 0.7357246854
544 1 24.6175946501 14.2113751209 0.7258749064
545 1 24.614326536 9.0435999345 -0.1813842261
546 1 22.3766036804 12.9194322788 -0.1809525499
547 1 26.8487512323 7.7516570825 -1.0984731508
548 1 29.0864407134 11.6274856286 -1.1081672616
549 1 26.855321573 10.3355427766 0.7255133288
550 1 29.0930108048 14.2113751209 0.7157492789
551 1 29.0897426208 9.0435999345 -0.1915267601
552 1 26.8520195558 12.9194322788 -0.1911567293
553 1 31.3241637584 7.7516570825 -1.10854757
554 1 33.5618535784 11.6274856286 -1.1181501002
555 1 31.3307341389 10.3355427766 0.7154497254
556 1 33.5684236997 14.2113751209 0.7057769969
557 1 33.5651554459 9.0435999345 -0.2015212421
558 1 31.3274321616 12.9194322788 -0.2012105835
559 1 35.7995806207 7.7516570825 -1.1184737976
560 1 38.0372707996 11.6274856286 -1.1279790352
561 1 35.8061510511 10.3355427766 0.705537045
562 1 38.0438409708 14.2113751209 0.6959614896
563 1 38.0405726073 9.0435999345 -0.2113646412
564 1 35.8028491137 12.9194322788 -0.2111107434
565 1 40.2749942333 7.7516570825 -1.1282488726
566 1 42.5126885691 11.6274856286 -1.1376509063
567 1 40.2815647136 10.3355427766 0.695778418
568 1 42.5192588001 14.2113751209 0.6863060864
569 1 42.515990327 9.0435999345 -0.2210539872
570 1 40.2782628361 12.9194322788 -0.2208539393
571 1 44.7504122023 7.7516570825 -1.1378700041
572 1 46.9881031287 11.6274856286 -1.1471626733
573 1 44.7569827522 10.3355427766 0.6861768048
574 1 46.9946734294 14.2113751209 0.676814037
575 1 46.9914048068 9.0435999345 -0.2305864488
576 1 44.7536809444 12.9194322788 -0.2304369711
577 1 49.2258269214 7.7516570825 -1.1473344905
578 1 51.4635220845 11.6274856286 -1.1565114853
579 1 49.232397561 10.3355427766 0.6767351064
580 1 51.470092465 14.2113751209 0.6674883919
581 1 51.466823673 9.0435999345 -0.2399593247
582 1 49.229095833 12.9194322788 -0.2398567787
583 1 53.7012460367 7.7516570825 -1.1566398497
584 1 55.9389378204 11.6274856286 -1.1656946007
585 1 53.7078167661 10.3355427766 0.6674559943
586 1 55.9455083006 14.2113751209 0.6583320918
587 1 55.9422393092 9.0435999345 -0.2491700827
588 1 53.7045151177 12.9194322788 -0.2491104711
589 1 58.1766657101 7.7516570825 -1.165783739
590 1 60.4143579723 11.6274856286 -1.1747095076
591 1 58.1832365492 10.3355427766 0.6583420204
592 1 60.4209285622 14.2113751209 0.649347868
593 1 60.4176593514 9.0435999345 -0.2582164502
594 1 58.1799350106 12.9194322788 -0.258195317
595 1 62.6520821837 7.7516570825 -1.1747640452
596 1 64.8897787324 11.6274856286 -1.1835539431
597 1 62.6586531423 10.3355427766 0.6493954576
598 1 64.8963494518 14.2113751209 0.6405381827
599 1 64.8930799819 9.0435999345 -0.2670963138
600 1 62.6553517234 12.9194322788 -0.2671088143
601 1 67.1275030534 7.7516570825 -1.1835789142
602 1 69.3651963125 11.6274856286 -1.1922258736
603 1 67.1340741516 10.3355427766 0.6406183693
604 1 69.3717671714 14.2113751209 0.6319052988
605 1 69.3684974225 9.0435999345 -0.2758078492
606 1 67.1307728722 12.9194322788 -0.2758487201
607 1 71.6029207232 7.7516570825 -1.1922267708
608 1 73.8406183286 11.6274856286 -1.2007236045
609 1 71.609491971 10.3355427766 0.63201252
610 1 73.847189347 14.2113751209 0.6234511103
611 1 73.843919279 9.0435999345 -0.2843495811
612 1 71.606190841 12.9194322788 -0.2844130406
613 1 76.078342809 7.7516570825 -1.2007063789
614 1 78.3160371746 11.6274856286 -1.2090457702
615 1 76.0849142163 10.3355427766 0.6235793351
616 1 78.3226083626 14.2113751209 0.6151771722
617 1 78.3193379457 9.0435999345 -0.2927203033
618 1 76.0816132559 12.9194322788 -0.2928001511
619 1 80.553765483 7.7516570825 -1.2090168216
620 1 82.7914604567 11.6274856286 -1.2171914036
621 1 80.5603370896 10.3355427766 0.6153199013
622 1 82.798031834 14.2113751209 0.607084661
623 1 82.7947610383 9.0435999345 -0.3009192582
624 1 80.5570362987 12.9194322788 -0.3010087953
625 1 85.0291849771 7.7516570825 -1.2171576104
626 1 87.2668805688 11.6274856286 -1.2251599565
627 1 85.0357567831 10.3355427766 0.6072349163
628 1 87.2734521556 14.2113751209 0.5991743242
629 1 87.2701809411 9.0435999345 -0.3089460372
630 1 85.0324561914 12.9194322788 -0.3090380864
631 1 89.5046088971 7.7516570825 -1.2251286753
632 1 91.7423051169 11.6274856286 -1.232951359
633 1 89.5111809125 10.3355427766 0.5993245695
634 1 91.7488769428 14.2113751209 0.591446401
635 1 91.7456052699 9.0435999345 -0.3168007597
636 1 89.5078805501 12.9194322788 -0.3168876353
637 1 93.9800296073 7.7516570825 -1.2329303953
638 1 96.2177303229 11.6274856286 -1.2405660201
639 1 93.9866018619 10.3355427766 0.5915886316
640 1 96.2243023881 14.2113751209 0.5839006224
641 1 96.2210302167 9.0435999345 -0.3244839842
642 1 93.9833017389 12.9194322788 -0.3245575118
643 1 98.4554547435 7.7516570825 -1.2405636975
644 1 100.693152339 11.6274856286 -1.2480049564
645 1 98.4620272574 10.3355427766 0.5840263252
646 1 100.6997246733 14.2113751209 0.5765361309
647 1 100.6964519736 9.0435999345 -0.3319968368
648 1 98.4587273834 12.9194322788 -0.3320483839
649 1 102.9308804679 7.7516570825 -1.2480300471
650 1 105.168578801 11.6274856286 -1.2552697528
651 1 102.9374532508 10.3355427766 0.5766362944