# LAMMPS data file written by OVITO Basic 3.3.0
74970 atoms
1 atom types
0.0 346.2783040888 xlo xhi
0.0 345.74845339 ylo yhi
0.0 7.4840662459 zlo zhi
0.0 0.0269589915 0.0 xy xz yz

Masses

1 1.008  # H

Atoms  # atomic

1 1 -0.0033643093 0.0 -0.9339639502
2 1 2.0335332611 3.5280448789 -0.9430172046
3 1 0.00261681 2.3520299162 0.7264516088
4 1 2.0395141808 5.8800747951 0.717341778
5 1 2.0365385388 1.1760149626 -0.1087255554
6 1 -3.885312063e-04 4.7040598324 -0.10785876
7 1 4.0704637792 0.0 -0.9438843901
8 1 6.1073615582 3.5280448789 -0.9528793803
9 1 4.0764449076 2.3520299162 0.7165320128
10 1 6.1133424779 5.8800747951 0.7074798926
11 1 6.1103668269 1.1760149626 -0.1185889288
12 1 4.0734395663 4.7040598324 -0.1177784196
13 1 8.1442888187 0.0 -0.953691913
14 1 10.1811868156 3.5280448789 -0.9626248278
15 1 8.1502699562 2.3520299162 0.706726958
16 1 10.1871677443 5.8800747951 0.6977364232
17 1 10.1841920751 1.1760149626 -0.1283372528
18 1 8.147264615 4.7040598324 -0.1275818955
19 1 12.2181177239 0.0 -0.9633839781
20 1 14.2550159657 3.5280448789 -0.9722508341
21 1 12.2240988795 2.3520299162 0.6970391123
22 1 14.2609969126 5.8800747951 0.688114219
23 1 14.2580212071 1.1760149626 -0.1379679595
24 1 12.2210935564 4.7040598324 -0.137266411
25 1 16.2919435983 0.0 -0.9729580356
26 1 18.3288455514 3.5280448789 -0.9817546859
27 1 16.297924772 2.3520299162 0.6874711344
28 1 18.3348265164 5.8800747951 0.6786160928
29 1 18.3318507746 1.1760149626 -0.1474784444
30 1 16.2949194671 4.7040598324 -0.1468291805
31 1 20.3657733745 0.0 -0.9824115902
32 1 22.4026721335 3.5280448789 -0.9911337157
33 1 20.3717545755 2.3520299162 0.6780256375
34 1 22.4086531258 5.8800747951 0.6692448849
35 1 22.4056773205 1.1760149626 -0.1568661761
36 1 20.3687492978 4.7040598324 -0.1562674544
37 1 24.4396035953 0.0 -0.9917422192
38 1 26.4765026357 3.5280448789 -1.000385319
39 1 24.4455848326 2.3520299162 0.6687052169
40 1 26.4824836643 5.8800747951 0.6600033356
41 1 26.4795077863 1.1760149626 -0.1661286592
42 1 24.4425795912 4.7040598324 -0.1655785288
43 1 28.5134307945 0.0 -1.0009474905
44 1 30.5503301434 3.5280448789 -1.0095069189
45 1 28.5194120772 2.3520299162 0.659512386
46 1 30.5563112083 5.8800747951 0.6508941399
47 1 30.5533352396 1.1760149626 -0.175263489
48 1 28.5164068811 4.7040598324 -0.1747597359
49 1 32.5872619137 0.0 -1.0100251177
50 1 34.6241615892 3.5280448789 -1.0184960472
51 1 32.5932432508 2.3520299162 0.6504495857
52 1 34.6301427176 5.8800747951 0.6419199292
53 1 34.627166631 1.1760149626 -0.1842683244
54 1 32.5902381001 4.7040598324 -0.1838084715
55 1 36.6610900475 0.0 -1.0189728867
56 1 38.697993516 3.5280448789 -1.0273503084
57 1 36.6670714482 2.3520299162 0.6415192025
58 1 38.7039746988 5.8800747951 0.6330832444
59 1 38.7009984943 1.1760149626 -0.1931409243
60 1 36.6640663519 4.7040598324 -0.1927222401
61 1 40.7349221195 0.0 -1.0277886923
62 1 42.7718224755 3.5280448789 -1.0360674431
63 1 40.7409035927 2.3520299162 0.6327234596
64 1 42.7778037401 5.8800747951 0.6243865171
65 1 42.7748273722 1.1760149626 -0.2018791742
66 1 40.737898569 4.7040598324 -0.2014986372
67 1 44.8087512061 0.0 -1.0364705291
68 1 46.8456554005 3.5280448789 -1.0446453461
69 1 44.814732761 2.3520299162 0.6240644984
70 1 46.8516367557 5.8800747951 0.6158319978
71 1 46.8486602154 1.1760149626 -0.2104811143
72 1 44.811727819 4.7040598324 -0.2101353852
73 1 48.8825842489 0.0 -1.0450166186
74 1 50.9194853763 3.5280448789 -1.0530820302
75 1 48.8885659036 2.3520299162 0.6155442608
76 1 50.9254668223 5.8800747951 0.6074218462
77 1 50.9224900914 1.1760149626 -0.2189449206
78 1 48.8855610524 4.7040598324 -0.2186303608
79 1 52.9564177818 0.0 -1.0534252912
80 1 54.9933193266 3.5280448789 -1.061375726
81 1 52.9623995363 2.3520299162 0.6071645615
82 1 54.9993008815 5.8800747951 0.5991579767
83 1 54.9963239328 1.1760149626 -0.227268969
84 1 52.9593947849 4.7040598324 -0.226981613
85 1 57.0302483565 0.0 -1.0616951041
86 1 59.0671537941 3.5280448789 -1.0695248818
87 1 57.036230229 2.3520299162 0.5989270067
88 1 59.0731354669 5.8800747951 0.5910421135
89 1 59.0701582823 1.1760149626 -0.2354518619
90 1 57.0332255865 4.7040598324 -0.2351873816
91 1 61.1040828966 0.0 -1.0698248324
92 1 63.1409853306 3.5280448789 -1.0775281637
93 1 61.1100648961 2.3520299162 0.5908329302
94 1 63.1469671305 5.8800747951 0.5830757538
95 1 63.1439896828 1.1760149626 -0.2434924199
96 1 61.1070603897 4.7040598324 -0.2432461511
97 1 65.1779144876 0.0 -1.0778135142
98 1 67.2148208598 3.5280448789 -1.0853845372
99 1 65.1838966233 2.3520299162 0.5828834844
100 1 67.2208028049 5.8800747951 0.5752600862
101 1 67.2178250577 1.1760149626 -0.2513897445
102 1 65.1808922529 4.7040598324 -0.2511566512
103 1 69.2517500531 0.0 -1.0856604508
104 1 71.288653449 3.5280448789 -1.0930932221
105 1 69.257732343 2.3520299162 0.5750794861
106 1 71.2946355574 5.8800747951 0.5675960364
107 1 71.2916574926 1.1760149626 -0.2591432006
108 1 69.2547281269 4.7040598324 -0.2589179018
109 1 73.3255861176 0.0 -1.093365243
110 1 75.3624900488 3.5280448789 -1.10065381
111 1 73.3315685799 2.3520299162 0.5674214433
112 1 75.3684723296 5.8800747951 0.5600841488
113 1 75.365493911 1.1760149626 -0.2667525341
114 1 73.3285645272 4.7040598324 -0.2665292407
115 1 77.3994192331 0.0 -1.1009278544
116 1 79.4363237087 3.5280448789 -1.1080662555
117 1 77.4054018768 2.3520299162 0.5599095647
118 1 79.4423061801 5.8800747951 0.552724632
119 1 79.4393273804 1.1760149626 -0.2742177722
120 1 77.4023980147 4.7040598324 -0.2739903411
121 1 81.473256332 0.0 -1.1083485663
122 1 83.5101613612 3.5280448789 -1.1153308762
123 1 81.4792391754 2.3520299162 0.5525436235
124 1 83.5161440413 5.8800747951 0.5455172593
125 1 83.5131648332 1.1760149626 -0.2815394049
126 1 81.4762355129 4.7040598324 -0.2813012937
127 1 85.5470904728 0.0 -1.1156281047
128 1 87.583999549 3.5280448789 -1.1224484434
129 1 85.5530735249 2.3520299162 0.5453230481
130 1 87.589982456 5.8800747951 0.5384613863
131 1 87.5870028033 1.1760149626 -0.2887182581
132 1 85.5500700802 4.7040598324 -0.2884625614
133 1 89.6209285881 0.0 -1.1227675766
134 1 91.6578347969 3.5280448789 -1.1294201549
135 1 89.626911867 2.3520299162 0.5382467858
136 1 91.6638179397 5.8800747951 0.531555906
137 1 91.6608378152 1.1760149626 -0.2957556382
138 1 89.6239086491 4.7040598324 -0.2954751059
139 1 93.6947671842 0.0 -1.1297685518
140 1 95.7316740282 3.5280448789 -1.1362477347
141 1 93.7007507082 2.3520299162 0.5313133667
142 1 95.7376574342 5.8800747951 0.5247991671
143 1 95.7346767925 1.1760149626 -0.3026533148
144 1 93.6977477353 4.7040598324 -0.3023403338
145 1 97.7686028223 0.0 -1.1366330447
146 1 99.8055103105 3.5280448789 -1.1429333879
147 1 97.7745866003 2.3520299162 0.5245207853
148 1 99.8114939797 5.8800747951 0.5181890188
149 1 99.8085128025 1.1760149626 -0.3094135563
150 1 97.7715838905 4.7040598324 -0.3090601506
151 1 101.8424424075 0.0 -1.1433636142
152 1 103.8793505491 3.5280448789 -1.1494798728
153 1 101.8484264668 2.3520299162 0.5178665555
154 1 103.8853345086 5.8800747951 0.51172273
155 1 103.8823527598 1.1760149626 -0.3160391304
156 1 101.8454240293 4.7040598324 -0.3156370426
157 1 105.9162789983 0.0 -1.149963282
158 1 107.9531912867 3.5280448789 -1.1558905198
159 1 105.922263348 2.3520299162 0.5113476193
160 1 107.9591755547 5.8800747951 0.5053969796
161 1 107.9561931889 1.1760149626 -0.3225333581
162 1 105.9192612008 4.7040598324 -0.3220740314
163 1 109.9901195091 0.0 -1.1564356594
164 1 112.0270290299 3.5280448789 -1.1621692124
165 1 109.9961041673 2.3520299162 0.5049603924
166 1 112.0330136155 5.8800747951 0.4992078384
167 1 112.0300306236 1.1760149626 -0.3289001231
168 1 109.9931023377 4.7040598324 -0.3283747376
169 1 114.0639569982 0.0 -1.1627848481
170 1 116.1008707022 3.5280448789 -1.1683204695
171 1 114.0699419831 2.3520299162 0.4987006826
172 1 116.1068556326 5.8800747951 0.4931507605
173 1 116.1038719601 1.1760149626 -0.3351438354
174 1 114.0669404802 4.7040598324 -0.3345433715
175 1 118.1377983801 0.0 -1.1690155391
176 1 120.1747093437 3.5280448789 -1.1743493726
177 1 118.1437836917 2.3520299162 0.4925637352
178 1 120.180694628 5.8800747951 0.4872205282
179 1 120.1777102568 1.1760149626 -0.341269531
180 1 118.1407825335 4.7040598324 -0.3405847876
181 1 122.2116401704 0.0 -1.1751329955
182 1 124.2485518689 3.5280448789 -1.1802616655
183 1 122.2176258358 2.3520299162 0.4865441874
184 1 124.2545375253 5.8800747951 0.4814113161
185 1 124.2515524191 1.1760149626 -0.3472827905
186 1 122.2146250406 4.7040598324 -0.3465044487
187 1 126.2854788845 0.0 -1.1811430156
188 1 128.3223948025 3.5280448789 -1.1860636729
189 1 126.2914649219 2.3520299162 0.4806360957
190 1 128.3283808399 5.8800747951 0.4757166272
191 1 128.3253949625 1.1760149626 -0.3531897933
192 1 126.2884644988 4.7040598324 -0.3523084251
193 1 130.3593214278 0.0 -1.1870519693
194 1 132.3962346327 3.5280448789 -1.1917622909
195 1 130.3653078464 2.3520299162 0.4748329088
196 1 132.4022210785 5.8800747951 0.4701293474
197 1 132.3992344116 1.1760149626 -0.3589972632
198 1 130.3623078135 4.7040598324 -0.3580034679
199 1 134.4331608407 0.0 -1.1928667619
200 1 136.4700782831 3.5280448789 -1.1973650782
201 1 134.4391476494 2.3520299162 0.4691275306
202 1 136.4760651372 5.8800747951 0.4646417184
203 1 136.4730776536 1.1760149626 -0.3647124957
204 1 134.4361480248 4.7040598324 -0.3635968908
205 1 138.5070040283 0.0 -1.1985948342
206 1 140.5439187757 3.5280448789 -1.2028800563
207 1 138.5129912454 2.3520299162 0.4635122666
208 1 140.5499060654 5.8800747951 0.4592454012
209 1 140.5469177289 1.1760149626 -0.3703432945
210 1 138.5099920382 4.7040598324 -0.3690966064
211 1 142.5808475063 0.0 -1.2042441168
212 1 144.617763016 3.5280448789 -1.2083158726
213 1 142.5868351407 2.3520299162 0.4579789136
214 1 144.6237507412 5.8800747951 0.4539314943
215 1 144.6207615426 1.1760149626 -0.3758979714
216 1 142.58383636 4.7040598324 -0.3745111079
217 1 146.6546877721 0.0 -1.2098230031
218 1 148.691604053 3.5280448789 -1.2136815741
219 1 146.660675833 2.3520299162 0.4525188061
220 1 148.6975922229 5.8800747951 0.4486905696
221 1 148.6946021351 1.1760149626 -0.3813852828
222 1 146.6576774878 4.7040598324 -0.3798494058
223 1 150.728531731 0.0 -1.2153403132
224 1 152.7654487651 3.5280448789 -1.2189867518
225 1 150.7345202275 2.3520299162 0.4471227521
226 1 152.7714373977 5.8800747951 0.4435127094
227 1 152.7684464116 1.1760149626 -0.3868144479
228 1 150.731522336 4.7040598324 -0.3851210097
229 1 154.8023724051 0.0 -1.2208052481
230 1 156.8392936677 3.5280448789 -1.2242413056
231 1 154.8083613462 2.3520299162 0.4417812329
232 1 156.8452827722 5.8800747951 0.4383875782
233 1 156.8422908514 1.1760149626 -0.3921949944
234 1 154.8053639084 4.7040598324 -0.3903358193
235 1 158.8762166907 0.0 -1.2262273536
236 1 160.9131352492 3.5280448789 -1.2294555073
237 1 158.8822060855 2.3520299162 0.4364842944
238 1 160.9191248164 5.8800747951 0.4333045052
239 1 160.9161319792 1.1760149626 -0.397536813
240 1 158.8792091105 4.7040598324 -0.39550417
241 1 162.9500611123 0.0 -1.2316164297
242 1 164.9869803968 3.5280448789 -1.2346398917
243 1 162.9560509609 2.3520299162 0.4312217645
244 1 164.992970445 5.8800747951 0.4282525106
245 1 164.989976655 1.1760149626 -0.4028500213
246 1 162.9530544487 4.7040598324 -0.4006366783
247 1 167.0239021403 0.0 -1.2369825032
248 1 169.0608221507 3.5280448789 -1.2398052208
249 1 167.0298924516 2.3520299162 0.42598319
250 1 169.0668126798 5.8800747951 0.4232203881
251 1 169.0638179461 1.1760149626 -0.4081449182
252 1 167.0268964203 4.7040598324 -0.4057442149
253 1 171.09774668 0.0 -1.242335746
254 1 173.1346674072 3.5280448789 -1.2449623559
255 1 171.1037374541 2.3520299162 0.4207579816
256 1 173.1406584082 5.8800747951 0.4181968134
257 1 173.1376627307 1.1760149626 -0.4134319661
258 1 171.1007418855 4.7040598324 -0.410837832
259 1 175.1715877806 0.0 -1.2476864208
260 1 177.2085126456 3.5280448789 -1.2501222224
261 1 175.1775790084 2.3520299162 0.4155354499
262 1 177.2145041365 5.8800747951 0.4131703894
263 1 177.2115075063 1.1760149626 -0.4187216363
264 1 175.1745839208 4.7040598324 -0.4159286452
265 1 179.245432293 0.0 -1.2530448086
266 1 181.2823543723 3.5280448789 -1.2552957271
267 1 179.2514239836 2.3520299162 0.4103048878
268 1 181.288346335 5.8800747951 0.4081297283
269 1 181.2853487612 1.1760149626 -0.4240243913
270 1 179.2484293769 4.7040598324 -0.4210278337
271 1 183.3192732938 0.0 -1.2584211176
272 1 185.3561994654 3.5280448789 -1.2604937044
273 1 183.325265438 2.3520299162 0.4050556423
274 1 185.3621919091 5.8800747951 0.4030635783
275 1 185.3591934006 1.1760149626 -0.4293506298
276 1 183.3222712941 4.7040598324 -0.426146486
277 1 187.3931176519 0.0 -1.2638254743
278 1 189.4300409834 3.5280448789 -1.2657267801
279 1 187.399110259 2.3520299162 0.3997772057
280 1 189.4360338899 5.8800747951 0.3979608327
281 1 189.4330344559 1.1760149626 -0.4347105602
282 1 187.3961165779 4.7040598324 -0.4312955816
283 1 191.4669618649 0.0 -1.2692677877
284 1 193.5038857953 3.5280448789 -1.27100538
285 1 191.4729549166 2.3520299162 0.3944592245
286 1 193.5098791645 5.8800747951 0.3928106392
287 1 193.506878814 1.1760149626 -0.4401142092
288 1 191.4699616982 4.7040598324 -0.4364858642
289 1 195.5408024574 0.0 -1.2747577487
290 1 197.5777304075 3.5280448789 -1.2763396128
291 1 195.5467959446 2.3520299162 0.3890916538
292 1 197.5837242396 5.8800747951 0.387602508
293 1 197.5807229907 1.1760149626 -0.445571286
294 1 195.5438031799 4.7040598324 -0.4417278051
295 1 199.6146462983 0.0 -1.2803047217
296 1 201.6515713176 3.5280448789 -1.2817392147
297 1 199.6206402302 2.3520299162 0.3836647391
298 1 201.6575655942 5.8800747951 0.3823262945
299 1 201.6545634652 1.1760149626 -0.451091164
300 1 199.6176479101 4.7040598324 -0.4470315492
301 1 203.6884864461 0.0 -1.2859177264
302 1 205.7254154217 3.5280448789 -1.287213514
303 1 203.6944807954 2.3520299162 0.3781691159
304 1 205.7314101248 5.8800747951 0.3769723258
305 1 205.7284071428 1.1760149626 -0.4566828356
306 1 203.6914889018 4.7040598324 -0.4524067874
307 1 207.762329788 0.0 -1.2916053921
308 1 209.79925576 3.5280448789 -1.2927713577
309 1 207.7683245456 2.3520299162 0.3725958645
310 1 209.8052508897 5.8800747951 0.3715314189
311 1 209.8022470728 1.1760149626 -0.4623548486
312 1 207.7653330785 4.7040598324 -0.4578628206
313 1 211.8361728214 0.0 -1.2973758763
314 1 213.873099238 3.5280448789 -1.2984211031
315 1 211.8421679782 2.3520299162 0.3669365188
316 1 213.879094776 5.8800747951 0.3659949626
317 1 213.8760901516 1.1760149626 -0.4681152697
318 1 211.8391769285 4.7040598324 -0.4634083781
319 1 215.9100120709 0.0 -1.3032368647
320 1 217.9469388959 3.5280448789 -1.3041705265
321 1 215.9160076179 2.3520299162 0.3611831482
322 1 217.952934824 5.8800747951 0.3603548902
323 1 217.9499294192 1.1760149626 -0.4739716304
324 1 215.9130169584 4.7040598324 -0.4690516537
325 1 219.9838544328 0.0 -1.3091955349
326 1 222.0207816207 3.5280448789 -1.3100268599
327 1 219.9898503609 2.3520299162 0.3553283482
328 1 222.0267779299 5.8800747951 0.354603779
329 1 222.0237717811 1.1760149626 -0.4799309721
330 1 219.9868600825 4.7040598324 -0.4748003059
331 1 224.0576929563 0.0 -1.3152585109
332 1 226.0946239372 3.5280448789 -1.3159967184
333 1 224.0636892383 2.3520299162 0.3493653043
334 1 226.1006206094 5.8800747951 0.3487348145
335 1 226.0976137437 1.1760149626 -0.4859997374
336 1 224.060699332 4.7040598324 -0.4806613397
337 1 228.1315345469 0.0 -1.3214319087
338 1 230.16846237 3.5280448789 -1.3220861361
339 1 228.1375311737 2.3520299162 0.3432877464
340 1 230.174459387 5.8800747951 0.3427418445
341 1 230.1714518317 1.1760149626 -0.492183788
342 1 228.1345416213 4.7040598324 -0.4866411614
343 1 232.205375711 0.0 -1.3277212451
344 1 234.2423038154 3.5280448789 -1.3283005212
345 1 232.2113726736 2.3520299162 0.3370900394
346 1 234.2483011591 5.8800747951 0.3366193248
347 1 234.2452929505 1.1760149626 -0.4984884504
348 1 232.2083834478 4.7040598324 -0.4927455512
349 1 236.2792129824 0.0 -1.3341314928
350 1 238.3161413227 3.5280448789 -1.3346446828
351 1 236.2852102535 2.3520299162 0.33076712
352 1 238.322138984 5.8800747951 0.3303624008
353 1 238.3191301493 1.1760149626 -0.5049184341
354 1 236.2822213543 4.7040598324 -0.4989796814
355 1 240.3530532663 0.0 -1.3406670436
356 1 242.3899818154 3.5280448789 -1.3411228041
357 1 240.3590508459 2.3520299162 0.3243145057
358 1 242.3959797761 5.8800747951 0.3239668076
359 1 242.3929703515 1.1760149626 -0.5114778949
360 1 240.3560622462 4.7040598324 -0.5053480525
361 1 244.4268896212 0.0 -1.3473317629
362 1 246.4638217999 3.5280448789 -1.3477385057
363 1 244.4328874821 2.3520299162 0.3177283129
364 1 246.4698200419 5.8800747951 0.317428952
365 1 246.4668100638 1.1760149626 -0.5181704534
366 1 244.4298991728 4.7040598324 -0.5118545845
367 1 248.5007289705 0.0 -1.3541289629
368 1 250.5376578281 3.5280448789 -1.3544948273
369 1 248.5067270946 2.3520299162 0.3110052385
370 1 250.5436563332 5.8800747951 0.3107458033
371 1 250.5406458289 1.1760149626 -0.5249990948
372 1 248.5037390484 4.7040598324 -0.5185026259
373 1 252.5745643636 0.0 -1.3610614293
374 1 254.6114968053 3.5280448789 -1.3613942461
375 1 252.5805627326 2.3520299162 0.304142506
376 1 254.6174955555 5.8800747951 0.3039149115
377 1 254.6144845611 1.1760149626 -0.5319664054
378 1 252.5775749496 4.7040598324 -0.5252948896
379 1 256.6484027147 0.0 -1.3681314396
380 1 258.6853317901 3.5280448789 -1.3684387221
381 1 256.6544013197 2.3520299162 0.2971378649
382 1 258.6913307761 5.8800747951 0.2969343891
383 1 258.688319319 1.1760149626 -0.539074336
384 1 256.6514137726 4.7040598324 -0.5322335717
385 1 260.7222405759 0.0 -1.3753407905
386 1 262.7591697147 3.5280448789 -1.3756297072
387 1 260.7282393986 2.3520299162 0.2899895912
388 1 262.7651689095 5.8800747951 0.2898028661
389 1 262.7621570259 1.1760149626 -0.5463244565
390 1 260.7252520693 4.7040598324 -0.5393203598
391 1 264.7960744536 0.0 -1.3826908158
392 1 266.8330071041 3.5280448789 -1.3829681904
393 1 264.8020734941 2.3520299162 0.2826964236
394 1 266.8390064985 5.8800747951 0.2825194531
395 1 266.8359942156 1.1760149626 -0.5537178284
396 1 264.7990863644 4.7040598324 -0.5465563883
397 1 268.8699112984 0.0 -1.3901824321
398 1 270.9068405008 3.5280448789 -1.390454698
399 1 268.8759105204 2.3520299162 0.2752575455
400 1 270.9128400767 5.8800747951 0.2750837418
401 1 270.9098274309 1.1760149626 -0.5612550961
402 1 268.8729235904 4.7040598324 -0.5539424012
403 1 272.9437441689 0.0 -1.3978161294
404 1 274.9806768194 3.5280448789 -1.3980893933
405 1 272.9497435633 2.3520299162 0.2676725757
406 1 274.9866765677 5.8800747951 0.267495696
407 1 274.9836635861 1.1760149626 -0.5689365226
408 1 272.9467568057 4.7040598324 -0.5614786435
409 1 277.0175799703 0.0 -1.4055920436
410 1 279.0545091545 3.5280448789 -1.4058720042
411 1 277.0235795371 2.3520299162 0.2599414871
412 1 279.060509048 5.8800747951 0.2597557329
413 1 279.0574957579 1.1760149626 -0.576761981
414 1 277.0205929428 4.7040598324 -0.5691650245
415 1 281.0914152816 0.0 -1.41350993
416 1 283.1283444114 3.5280448789 -1.4138019681
417 1 281.0974149936 2.3520299162 0.2520646607
418 1 283.1343444592 5.8800747951 0.2518645696
419 1 283.1313308787 1.1760149626 -0.5847310357
420 1 281.0944285445 4.7040598324 -0.5770010269
421 1 285.1652466095 0.0 -1.421569253
422 1 287.2021756849 3.5280448789 -1.4218783502
423 1 285.1712464576 2.3520299162 0.2440427771
424 1 287.2081758506 5.8800747951 0.2438232857
425 1 287.2051620251 1.1760149626 -0.5928428973
426 1 285.1682601446 4.7040598324 -0.5849858069
427 1 289.2390809046 0.0 -1.4297691869
428 1 291.2760098892 3.5280448789 -1.4300999711
429 1 289.2450808707 2.3520299162 0.2358767799
430 1 291.2820101729 5.8800747951 0.2356331971
431 1 291.2789961115 1.1760149626 -0.6010965494
432 1 289.2420946756 4.7040598324 -0.5931182755
433 1 293.3129112253 0.0 -1.4381086067
434 1 295.3498435854 3.5280448789 -1.438465397
435 1 293.3189113002 2.3520299162 0.2275679578
436 1 295.3558439689 5.8800747951 0.2272959369
437 1 295.3528297079 1.1760149626 -0.6094906945
438 1 293.315925214 4.7040598324 -0.6013969991
439 1 297.3867445041 0.0 -1.4465861964
440 1 299.4236732981 3.5280448789 -1.4469729219
441 1 297.3927446788 2.3520299162 0.2191177625
442 1 299.4296737723 5.8800747951 0.2188133292
443 1 299.4266593298 1.1760149626 -0.6180237901
444 1 297.3897586925 4.7040598324 -0.6098203626
445 1 301.460577311 0.0 -1.4552003955
446 1 303.497505978 3.5280448789 -1.455620713
447 1 301.4665775674 2.3520299162 0.210527909
448 1 303.5035065248 5.8800747951 0.2101874247
449 1 303.5004919281 1.1760149626 -0.6266941391
450 1 301.4635916627 4.7040598324 -0.6183865057
451 1 305.5344061526 0.0 -1.4639494707
452 1 307.5713346926 3.5280448789 -1.4644067104
453 1 305.5404064907 2.3520299162 0.2018002847
454 1 307.577335312 5.8800747951 0.201420401
455 1 307.57432057 1.1760149626 -0.6354998272
456 1 305.5374206677 4.7040598324 -0.6270933595
457 1 309.6082379886 0.0 -1.4728315257
458 1 311.6451663743 3.5280448789 -1.4733287092
459 1 309.6142383902 2.3520299162 0.1929369222
460 1 311.6511670482 5.8800747951 0.1925146266
461 1 311.6481521883 1.1760149626 -0.6444388397
462 1 309.6112526307 4.7040598324 -0.6359387464
463 1 313.6820658865 0.0 -1.4818445005
464 1 315.7189975843 3.5280448789 -1.4823843863
465 1 313.6880663517 2.3520299162 0.1839400356
466 1 315.7249983035 5.8800747951 0.1834725877
467 1 315.7219833438 1.1760149626 -0.6535089718
468 1 313.6850806375 4.7040598324 -0.6449203161
469 1 317.7558967698 0.0 -1.4909862538
470 1 319.792824856 3.5280448789 -1.4915713101
471 1 317.7618972894 2.3520299162 0.1748119115
472 1 319.7988256206 5.8800747951 0.1742968704
473 1 319.7958105702 1.1760149626 -0.6627079367
474 1 317.7589116206 4.7040598324 -0.6540356276
475 1 321.8297237512 0.0 -1.5002545079
476 1 323.8666551223 3.5280448789 -1.5008869668
477 1 321.8357243071 2.3520299162 0.1655549545
478 1 323.8726559231 5.8800747951 0.1649901243
479 1 323.8696408092 1.1760149626 -0.6720333662
480 1 321.8327386837 4.7040598324 -0.6632821041
481 1 325.9035537452 0.0 -1.5096469218
482 1 327.9404814776 3.5280448789 -1.5103287524
483 1 325.9095543374 2.3520299162 0.15617166
484 1 327.9464822966 5.8800747951 0.1555551079
485 1 327.9434671282 1.1760149626 -0.6814828012
486 1 325.9065687412 4.7040598324 -0.6726571322
487 1 329.9773833037 0.0 -1.5191610546
488 1 332.0143108364 3.5280448789 -1.5198940354
489 1 329.983383914 2.3520299162 0.1466645869
490 1 332.0203116826 5.8800747951 0.1459945797
491 1 332.017296478 1.1760149626 -0.6910537282
492 1 329.980398345 4.7040598324 -0.682158026
493 1 334.0512089603 0.0 -1.528794438
494 1 336.0881397778 3.5280448789 -1.5295801117
495 1 334.0572095978 2.3520299162 0.1370363393
496 1 336.0941406241 5.8800747951 0.1363113709
497 1 336.0911254012 1.1760149626 -0.7007435883
498 1 334.0542240379 4.7040598324 -0.6917820087
499 1 338.1250376658 0.0 -1.5385445587
500 1 340.1619648265 3.5280448789 -1.5393842772
501 1 338.1310383033 2.3520299162 0.1272895398
502 1 340.1679656727 5.8800747951 0.1265083215
503 1 340.1649504408 1.1760149626 -0.7105497683
504 1 338.1280527525 4.7040598324 -0.7015263765
505 1 342.1988624876 0.0 -1.5484088667
506 1 344.2357929149 3.5280448789 -1.5493038006
507 1 342.2048631433 2.3520299162 0.1174268741
508 1 344.2417937612 5.8800747951 0.1165882808
509 1 344.2387785293 1.1760149626 -0.720469691
510 1 342.2018775924 4.7040598324 -0.7113882981
511 1 -0.0033939995 7.0560897487 -0.9422069222
512 1 2.0335029448 10.5841346275 -0.9514336264
513 1 0.0025867115 9.4081196649 0.718095257
514 1 2.0394834471 12.936168001 0.7088082197
515 1 2.0365086308 8.2321047113 -0.1170264015
516 1 -4.1903804724e-04 11.7601530474 -0.1163300161
517 1 4.070434089 7.0560897487 -0.9521275618
518 1 6.1073312328 10.5841346275 -0.9612978347
519 1 4.0764148 9.4081196649 0.7081726665
520 1 6.1133117261 12.936168001 0.6989413255
521 1 6.110336928 8.2321047113 -0.1268889583
522 1 4.0734090323 11.7601530474 -0.1262555738
523 1 8.1442591376 7.0560897487 -0.9619303934
524 1 10.1811564993 10.5841346275 -0.9710402333
525 1 8.1502398486 9.4081196649 0.6983695173
526 1 10.1871369834 12.936168001 0.6891979377
527 1 10.1841621944 8.2321047113 -0.1366313842
528 1 8.1472340809 11.7601530474 -0.1360600569
529 1 12.218088079 7.0560897487 -0.9716125043
530 1 14.2549856857 10.5841346275 -0.9806577191
531 1 12.2240687991 9.4081196649 0.6886888401
532 1 14.2609661789 12.936168001 0.6795812686
533 1 14.2579913717 8.2321047113 -0.1462507483
534 1 12.2210630314 11.7601530474 -0.1457403167
535 1 16.291914017 7.0560897487 -0.9811709817
536 1 18.3288153258 10.5841346275 -0.9901471977
537 1 16.297894737 9.4081196649 0.6791336837
538 1 18.334795819 12.936168001 0.6700945848
539 1 18.3318209937 8.2321047113 -0.1557440561
540 1 16.2948889784 11.7601530474 -0.1552931501
541 1 20.3657438658 7.0560897487 -0.9906029583
542 1 22.4026419715 10.5841346275 -0.9995055841
543 1 20.3717246131 9.4081196649 0.6697070517
544 1 22.4086224919 12.936168001 0.6607411075
545 1 22.4056476303 8.2321047113 -0.1651083587
546 1 20.3687188635 11.7601530474 -0.1647154175
547 1 24.4395741864 7.0560897487 -0.9999055758
548 1 26.4764725735 10.5841346275 -1.0087298201
549 1 24.445554961 9.4081196649 0.6604119748
550 1 26.4824531211 12.936168001 0.6515240671
551 1 26.479478196 8.2321047113 -0.1743407886
552 1 24.4425492386 11.7601530474 -0.1740039612
553 1 28.5134015127 7.0560897487 -1.0090760029
554 1 30.5503002082 10.5841346275 -1.0178168843
555 1 28.5193823235 9.4081196649 0.651251393
556 1 30.5562807831 12.936168001 0.6424466123
557 1 30.5533057944 8.2321047113 -0.1834384513
558 1 28.5163766374 11.7601530474 -0.1831556686
559 1 32.5872327861 7.0560897487 -1.0181115358
560 1 34.6241318083 10.5841346275 -1.0267638548
561 1 32.5932136423 9.4081196649 0.6422281917
562 1 34.6301124286 12.936168001 0.6335118646
563 1 34.6271373401 8.2321047113 -0.1923985881
564 1 32.5902079925 11.7601530474 -0.1921674729
565 1 36.6610611014 7.0560897487 -1.0270094793
566 1 38.6979639075 10.5841346275 -1.035567855
567 1 36.667042003 9.4081196649 0.6333452203
568 1 38.7039445822 12.936168001 0.6247228546
569 1 38.7009693939 8.2321047113 -0.2012184951
570 1 36.6640364077 11.7601530474 -0.2010363978
571 1 40.7348933821 7.0560897487 -1.0357672928
572 1 42.7717930848 10.5841346275 -1.0442261175
573 1 40.7408743471 9.4081196649 0.6246051737
574 1 42.777773823 12.936168001 0.6160825405
575 1 42.7747984986 8.2321047113 -0.2098955953
576 1 40.7378688153 11.7601530474 -0.2097595304
577 1 44.8087227046 7.0560897487 -1.0443825173
578 1 46.8456262638 10.5841346275 -1.0527360471
579 1 44.8147037513 9.4081196649 0.6160106924
580 1 46.8516070746 12.936168001 0.6075936989
581 1 46.848631596 8.2321047113 -0.2184274295
582 1 44.8116982921 11.7601530474 -0.2183340851
583 1 48.8825560288 7.0560897487 -1.0528528932
584 1 50.9194565119 10.5841346275 -1.0610951484
585 1 48.8885371572 9.4081196649 0.6075642084
586 1 50.9254374134 12.936168001 0.5992590068
587 1 50.9224617533 8.2321047113 -0.226811693
588 1 48.8855317705 11.7601530474 -0.2267574304
589 1 52.9563898611 7.0560897487 -1.0611762882
590 1 54.9932907797 10.5841346275 -1.0693011347
591 1 52.9623710893 9.4081196649 0.5992680445
592 1 54.9992717811 12.936168001 0.5910809503
593 1 54.9962959213 8.2321047113 -0.2350463169
594 1 52.9593658025 11.7601530474 -0.23502708
595 1 57.0302207806 7.0560897487 -1.0693507786
596 1 59.0671256011 10.5841346275 -1.0773519463
597 1 57.0362021177 9.4081196649 0.5911242696
598 1 59.0731067204 12.936168001 0.5830617707
599 1 59.0701306247 8.2321047113 -0.2431293776
600 1 57.0331969398 11.7601530474 -0.2431407564
601 1 61.1040557018 7.0560897487 -1.0773746767
602 1 63.1409575279 10.5841346275 -1.085245732
603 1 61.1100371659 9.4081196649 0.5831347621
604 1 63.1469387742 12.936168001 0.5752035279
605 1 63.1439624245 8.2321047113 -0.2510592144
606 1 61.1070321151 11.7601530474 -0.2510964179
607 1 65.1778877102 7.0560897487 -1.0852465487
608 1 67.2147934926 10.5841346275 -1.0929809493
609 1 65.1838693105 9.4081196649 0.575301128
610 1 67.2207748841 12.936168001 0.5675079459
611 1 67.217798244 8.2321047113 -0.2588344844
612 1 65.1808643957 11.7601530474 -0.2588922496
613 1 69.2517237384 7.0560897487 -1.0929652694
614 1 71.2886265717 10.5841346275 -1.1005563551
615 1 69.2577054839 9.4081196649 0.5676246649
616 1 71.2946081175 12.936168001 0.5599764402
617 1 71.2916311598 8.2321047113 -0.2664540897
618 1 69.2547007234 11.7601530474 -0.2665267726
619 1 73.325560302 7.0560897487 -1.1005300041
620 1 75.3624636888 10.5841346275 -1.1079710691
621 1 73.3315422289 9.4081196649 0.560106362
622 1 75.368445407 12.936168001 0.5526100816
623 1 75.3654681045 8.2321047113 -0.2739173406
624 1 73.3285376227 11.7601530474 -0.2739988434
625 1 77.399393971 7.0560897487 -1.1079403082
626 1 79.4362979204 10.5841346275 -1.1152245923
627 1 77.4053760794 9.4081196649 0.5527468543
628 1 79.4422798292 12.936168001 0.5454095507
629 1 79.4393021455 8.2321047113 -0.2812238651
630 1 77.4023716546 11.7601530474 -0.2813076546
631 1 81.4732316688 7.0560897487 -1.115196118
632 1 83.5101361899 10.5841346275 -1.1223168611
633 1 81.4792139678 9.4081196649 0.5455463143
634 1 83.5161183164 12.936168001 0.5383750652
635 1 83.5131402154 8.2321047113 -0.2883737721
636 1 81.4762097517 11.7601530474 -0.2884528522
637 1 85.5470664448 7.0560897487 -1.1222977785
638 1 87.5839750583 10.5841346275 -1.1292482477
639 1 85.5530489616 9.4081196649 0.5385045332
640 1 87.5899574026 12.936168001 0.5315063801
641 1 87.5869788479 8.2321047113 -0.2953675698
642 1 85.5500449633 11.7601530474 -0.2954344997
643 1 89.6209052497 7.0560897487 -1.1292461335
644 1 91.657811023 10.5841346275 -1.1360196775
645 1 89.6268880024 9.4081196649 0.5316208034
646 1 91.6637936123 12.936168001 0.524802715
647 1 91.6608145766 8.2321047113 -0.3022062834
648 1 89.6238842309 11.7601530474 -0.3022532051
649 1 93.6947445899 7.0560897487 -1.1360425168
650 1 95.7316510347 10.5841346275 -1.1426325933
651 1 93.7007275876 9.4081196649 0.5248938907