# LAMMPS data file written by OVITO Basic 3.3.0
70308 atoms
1 atom types
0.0 382.3171990842 xlo xhi
0.0 375.9354497691 ylo yhi
0.0 7.7516583285 zlo zhi

Masses

1 95.96  # Mo

Atoms  # atomic

1 1 0.0 0.0 0.0
2 1 0.0 2.2377106541 3.8758291643
3 1 1.833654453 0.0 2.5838860829
4 1 1.833654453 2.2377106541 6.4597152472
5 1 0.9168272315 2.2377106541 1.2919430814
6 1 0.9168272315 0.0 5.1677722456
7 1 2.7504816846 0.0 0.0
8 1 2.7504816846 2.2377106541 3.8758291643
9 1 4.5841399655 0.0 2.5838860829
10 1 4.5841399655 2.2377106541 6.4597152472
11 1 3.667312734 2.2377106541 1.2919430814
12 1 3.667312734 0.0 5.1677722456
13 1 5.500967197 0.0 0.0
14 1 5.500967197 2.2377106541 3.8758291643
15 1 7.33462165 0.0 2.5838860829
16 1 7.33462165 2.2377106541 6.4597152472
17 1 6.4177944284 2.2377106541 1.2919430814
18 1 6.4177944284 0.0 5.1677722456
19 1 8.2514488814 0.0 0.0
20 1 8.2514488814 2.2377106541 3.8758291643
21 1 10.0851071623 0.0 2.5838860829
22 1 10.0851071623 2.2377106541 6.4597152472
23 1 9.1682799309 2.2377106541 1.2919430814
24 1 9.1682799309 0.0 5.1677722456
25 1 11.0019343939 0.0 0.0
26 1 11.0019343939 2.2377106541 3.8758291643
27 1 12.8355888469 0.0 2.5838860829
28 1 12.8355888469 2.2377106541 6.4597152472
29 1 11.9187616254 2.2377106541 1.2919430814
30 1 11.9187616254 0.0 5.1677722456
31 1 13.7524160784 0.0 0.0
32 1 13.7524160784 2.2377106541 3.8758291643
33 1 15.5860743593 0.0 2.5838860829
34 1 15.5860743593 2.2377106541 6.4597152472
35 1 14.6692433099 2.2377106541 1.2919430814
36 1 14.6692433099 0.0 5.1677722456
37 1 16.5029015908 0.0 0.0
38 1 16.5029015908 2.2377106541 3.8758291643
39 1 18.3365560439 0.0 2.5838860829
40 1 18.3365560439 2.2377106541 6.4597152472
41 1 17.4197288124 2.2377106541 1.2919430814
42 1 17.4197288124 0.0 5.1677722456
43 1 19.2533832754 0.0 0.0
44 1 19.2533832754 2.2377106541 3.8758291643
45 1 21.0870415563 0.0 2.5838860829
46 1 21.0870415563 2.2377106541 6.4597152472
47 1 20.1702105068 2.2377106541 1.2919430814
48 1 20.1702105068 0.0 5.1677722456
49 1 22.0038687877 0.0 0.0
50 1 22.0038687877 2.2377106541 3.8758291643
51 1 23.8375232408 0.0 2.5838860829
52 1 23.8375232408 2.2377106541 6.4597152472
53 1 22.9206960093 2.2377106541 1.2919430814
54 1 22.9206960093 0.0 5.1677722456
55 1 24.7543504723 0.0 0.0
56 1 24.7543504723 2.2377106541 3.8758291643
57 1 26.5880049253 0.0 2.5838860829
58 1 26.5880049253 2.2377106541 6.4597152472
59 1 25.6711776938 2.2377106541 1.2919430814
60 1 25.6711776938 0.0 5.1677722456
61 1 27.5048359747 0.0 0.0
62 1 27.5048359747 2.2377106541 3.8758291643
63 1 29.3384904377 0.0 2.5838860829
64 1 29.3384904377 2.2377106541 6.4597152472
65 1 28.4216632062 2.2377106541 1.2919430814
66 1 28.4216632062 0.0 5.1677722456
67 1 30.2553176693 0.0 0.0
68 1 30.2553176693 2.2377106541 3.8758291643
69 1 32.0889721223 0.0 2.5838860829
70 1 32.0889721223 2.2377106541 6.4597152472
71 1 31.1721448908 2.2377106541 1.2919430814
72 1 31.1721448908 0.0 5.1677722456
73 1 33.0058031717 0.0 0.0
74 1 33.0058031717 2.2377106541 3.8758291643
75 1 34.8394576347 0.0 2.5838860829
76 1 34.8394576347 2.2377106541 6.4597152472
77 1 33.9226304032 2.2377106541 1.2919430814
78 1 33.9226304032 0.0 5.1677722456
79 1 35.7562848661 0.0 0.0
80 1 35.7562848661 2.2377106541 3.8758291643
81 1 37.5899393192 0.0 2.5838860829
82 1 37.5899393192 2.2377106541 6.4597152472
83 1 36.6731120878 2.2377106541 1.2919430814
84 1 36.6731120878 0.0 5.1677722456
85 1 38.5067665507 0.0 0.0
86 1 38.5067665507 2.2377106541 3.8758291643
87 1 40.3404248316 0.0 2.5838860829
88 1 40.3404248316 2.2377106541 6.4597152472
89 1 39.4235976001 2.2377106541 1.2919430814
90 1 39.4235976001 0.0 5.1677722456
91 1 41.2572520531 0.0 0.0
92 1 41.2572520531 2.2377106541 3.8758291643
93 1 43.0909065161 0.0 2.5838860829
94 1 43.0909065161 2.2377106541 6.4597152472
95 1 42.1740792846 2.2377106541 1.2919430814
96 1 42.1740792846 0.0 5.1677722456
97 1 44.0077337477 0.0 0.0
98 1 44.0077337477 2.2377106541 3.8758291643
99 1 45.8413920286 0.0 2.5838860829
100 1 45.8413920286 2.2377106541 6.4597152472
101 1 44.9245647971 2.2377106541 1.2919430814
102 1 44.9245647971 0.0 5.1677722456
103 1 46.7582192501 0.0 0.0
104 1 46.7582192501 2.2377106541 3.8758291643
105 1 48.5918737131 0.0 2.5838860829
106 1 48.5918737131 2.2377106541 6.4597152472
107 1 47.6750464816 2.2377106541 1.2919430814
108 1 47.6750464816 0.0 5.1677722456
109 1 49.5087009346 0.0 0.0
110 1 49.5087009346 2.2377106541 3.8758291643
111 1 51.3423592156 0.0 2.5838860829
112 1 51.3423592156 2.2377106541 6.4597152472
113 1 50.4255281661 2.2377106541 1.2919430814
114 1 50.4255281661 0.0 5.1677722456
115 1 52.2591864471 0.0 0.0
116 1 52.2591864471 2.2377106541 3.8758291643
117 1 54.09284091 0.0 2.5838860829
118 1 54.09284091 2.2377106541 6.4597152472
119 1 53.1760136785 2.2377106541 1.2919430814
120 1 53.1760136785 0.0 5.1677722456
121 1 55.0096681315 0.0 0.0
122 1 55.0096681315 2.2377106541 3.8758291643
123 1 56.8433264124 0.0 2.5838860829
124 1 56.8433264124 2.2377106541 6.4597152472
125 1 55.926495363 2.2377106541 1.2919430814
126 1 55.926495363 0.0 5.1677722456
127 1 57.760153644 0.0 0.0
128 1 57.760153644 2.2377106541 3.8758291643
129 1 59.593808107 0.0 2.5838860829
130 1 59.593808107 2.2377106541 6.4597152472
131 1 58.6769808755 2.2377106541 1.2919430814
132 1 58.6769808755 0.0 5.1677722456
133 1 60.5106353285 0.0 0.0
134 1 60.5106353285 2.2377106541 3.8758291643
135 1 62.3442897915 0.0 2.5838860829
136 1 62.3442897915 2.2377106541 6.4597152472
137 1 61.42746256 2.2377106541 1.2919430814
138 1 61.42746256 0.0 5.1677722456
139 1 63.2611208409 0.0 0.0
140 1 63.2611208409 2.2377106541 3.8758291643
141 1 65.094775294 0.0 2.5838860829
142 1 65.094775294 2.2377106541 6.4597152472
143 1 64.1779480725 2.2377106541 1.2919430814
144 1 64.1779480725 0.0 5.1677722456
145 1 66.0116025254 0.0 0.0
146 1 66.0116025254 2.2377106541 3.8758291643
147 1 67.8452569884 0.0 2.5838860829
148 1 67.8452569884 2.2377106541 6.4597152472
149 1 66.9284297569 2.2377106541 1.2919430814
150 1 66.9284297569 0.0 5.1677722456
151 1 68.7620880378 0.0 0.0
152 1 68.7620880378 2.2377106541 3.8758291643
153 1 70.5957424908 0.0 2.5838860829
154 1 70.5957424908 2.2377106541 6.4597152472
155 1 69.6789152693 2.2377106541 1.2919430814
156 1 69.6789152693 0.0 5.1677722456
157 1 71.5125697224 0.0 0.0
158 1 71.5125697224 2.2377106541 3.8758291643
159 1 73.3462241854 0.0 2.5838860829
160 1 73.3462241854 2.2377106541 6.4597152472
161 1 72.4293969539 2.2377106541 1.2919430814
162 1 72.4293969539 0.0 5.1677722456
163 1 74.2630514069 0.0 0.0
164 1 74.2630514069 2.2377106541 3.8758291643
165 1 76.0967096878 0.0 2.5838860829
166 1 76.0967096878 2.2377106541 6.4597152472
167 1 75.1798824563 2.2377106541 1.2919430814
168 1 75.1798824563 0.0 5.1677722456
169 1 77.0135369193 0.0 0.0
170 1 77.0135369193 2.2377106541 3.8758291643
171 1 78.8471913724 0.0 2.5838860829
172 1 78.8471913724 2.2377106541 6.4597152472
173 1 77.9303641509 2.2377106541 1.2919430814
174 1 77.9303641509 0.0 5.1677722456
175 1 79.7640186038 0.0 0.0
176 1 79.7640186038 2.2377106541 3.8758291643
177 1 81.5976768848 0.0 2.5838860829
178 1 81.5976768848 2.2377106541 6.4597152472
179 1 80.6808496533 2.2377106541 1.2919430814
180 1 80.6808496533 0.0 5.1677722456
181 1 82.5145041162 0.0 0.0
182 1 82.5145041162 2.2377106541 3.8758291643
183 1 84.3481585693 0.0 2.5838860829
184 1 84.3481585693 2.2377106541 6.4597152472
185 1 83.4313313477 2.2377106541 1.2919430814
186 1 83.4313313477 0.0 5.1677722456
187 1 85.2649858008 0.0 0.0
188 1 85.2649858008 2.2377106541 3.8758291643
189 1 87.0986440817 0.0 2.5838860829
190 1 87.0986440817 2.2377106541 6.4597152472
191 1 86.1818130323 2.2377106541 1.2919430814
192 1 86.1818130323 0.0 5.1677722456
193 1 88.0154713132 0.0 0.0
194 1 88.0154713132 2.2377106541 3.8758291643
195 1 89.8491257662 0.0 2.5838860829
196 1 89.8491257662 2.2377106541 6.4597152472
197 1 88.9322985347 2.2377106541 1.2919430814
198 1 88.9322985347 0.0 5.1677722456
199 1 90.7659529978 0.0 0.0
200 1 90.7659529978 2.2377106541 3.8758291643
201 1 92.5996112787 0.0 2.5838860829
202 1 92.5996112787 2.2377106541 6.4597152472
203 1 91.6827802292 2.2377106541 1.2919430814
204 1 91.6827802292 0.0 5.1677722456
205 1 93.5164385102 0.0 0.0
206 1 93.5164385102 2.2377106541 3.8758291643
207 1 95.3500929631 0.0 2.5838860829
208 1 95.3500929631 2.2377106541 6.4597152472
209 1 94.4332657317 2.2377106541 1.2919430814
210 1 94.4332657317 0.0 5.1677722456
211 1 96.2669201946 0.0 0.0
212 1 96.2669201946 2.2377106541 3.8758291643
213 1 98.1005746477 0.0 2.5838860829
214 1 98.1005746477 2.2377106541 6.4597152472
215 1 97.1837474261 2.2377106541 1.2919430814
216 1 97.1837474261 0.0 5.1677722456
217 1 99.0174057071 0.0 0.0
218 1 99.0174057071 2.2377106541 3.8758291643
219 1 100.8510601601 0.0 2.5838860829
220 1 100.8510601601 2.2377106541 6.4597152472
221 1 99.9342329286 2.2377106541 1.2919430814
222 1 99.9342329286 0.0 5.1677722456
223 1 101.7678873916 0.0 0.0
224 1 101.7678873916 2.2377106541 3.8758291643
225 1 103.6015418446 0.0 2.5838860829
226 1 103.6015418446 2.2377106541 6.4597152472
227 1 102.6847146131 2.2377106541 1.2919430814
228 1 102.6847146131 0.0 5.1677722456
229 1 104.5183690762 0.0 0.0
230 1 104.5183690762 2.2377106541 3.8758291643
231 1 106.3520273571 0.0 2.5838860829
232 1 106.3520273571 2.2377106541 6.4597152472
233 1 105.4352001256 2.2377106541 1.2919430814
234 1 105.4352001256 0.0 5.1677722456
235 1 107.2688545886 0.0 0.0
236 1 107.2688545886 2.2377106541 3.8758291643
237 1 109.1025090415 0.0 2.5838860829
238 1 109.1025090415 2.2377106541 6.4597152472
239 1 108.1856818101 2.2377106541 1.2919430814
240 1 108.1856818101 0.0 5.1677722456
241 1 110.019336273 0.0 0.0
242 1 110.019336273 2.2377106541 3.8758291643
243 1 111.852994554 0.0 2.5838860829
244 1 111.852994554 2.2377106541 6.4597152472
245 1 110.9361673225 2.2377106541 1.2919430814
246 1 110.9361673225 0.0 5.1677722456
247 1 112.7698217755 0.0 0.0
248 1 112.7698217755 2.2377106541 3.8758291643
249 1 114.6034762385 0.0 2.5838860829
250 1 114.6034762385 2.2377106541 6.4597152472
251 1 113.686649007 2.2377106541 1.2919430814
252 1 113.686649007 0.0 5.1677722456
253 1 115.52030347 0.0 0.0
254 1 115.52030347 2.2377106541 3.8758291643
255 1 117.3539617509 0.0 2.5838860829
256 1 117.3539617509 2.2377106541 6.4597152472
257 1 116.4371306915 2.2377106541 1.2919430814
258 1 116.4371306915 0.0 5.1677722456
259 1 118.2707889725 0.0 0.0
260 1 118.2707889725 2.2377106541 3.8758291643
261 1 120.1044434355 0.0 2.5838860829
262 1 120.1044434355 2.2377106541 6.4597152472
263 1 119.187616204 2.2377106541 1.2919430814
264 1 119.187616204 0.0 5.1677722456
265 1 121.0212706669 0.0 0.0
266 1 121.0212706669 2.2377106541 3.8758291643
267 1 122.8549289479 0.0 2.5838860829
268 1 122.8549289479 2.2377106541 6.4597152472
269 1 121.9380978885 2.2377106541 1.2919430814
270 1 121.9380978885 0.0 5.1677722456
271 1 123.7717561694 0.0 0.0
272 1 123.7717561694 2.2377106541 3.8758291643
273 1 125.6054106324 0.0 2.5838860829
274 1 125.6054106324 2.2377106541 6.4597152472
275 1 124.6885834008 2.2377106541 1.2919430814
276 1 124.6885834008 0.0 5.1677722456
277 1 126.5222378539 0.0 0.0
278 1 126.5222378539 2.2377106541 3.8758291643
279 1 128.3558923169 0.0 2.5838860829
280 1 128.3558923169 2.2377106541 6.4597152472
281 1 127.4390650854 2.2377106541 1.2919430814
282 1 127.4390650854 0.0 5.1677722456
283 1 129.2727233663 0.0 0.0
284 1 129.2727233663 2.2377106541 3.8758291643
285 1 131.1063778293 0.0 2.5838860829
286 1 131.1063778293 2.2377106541 6.4597152472
287 1 130.1895505978 2.2377106541 1.2919430814
288 1 130.1895505978 0.0 5.1677722456
289 1 132.0232050509 0.0 0.0
290 1 132.0232050509 2.2377106541 3.8758291643
291 1 133.8568595139 0.0 2.5838860829
292 1 133.8568595139 2.2377106541 6.4597152472
293 1 132.9400322824 2.2377106541 1.2919430814
294 1 132.9400322824 0.0 5.1677722456
295 1 134.7736905633 0.0 0.0
296 1 134.7736905633 2.2377106541 3.8758291643
297 1 136.6073450163 0.0 2.5838860829
298 1 136.6073450163 2.2377106541 6.4597152472
299 1 135.6905177948 2.2377106541 1.2919430814
300 1 135.6905177948 0.0 5.1677722456
301 1 137.5241722478 0.0 0.0
302 1 137.5241722478 2.2377106541 3.8758291643
303 1 139.3578267108 0.0 2.5838860829
304 1 139.3578267108 2.2377106541 6.4597152472
305 1 138.4409994793 2.2377106541 1.2919430814
306 1 138.4409994793 0.0 5.1677722456
307 1 140.2746539323 0.0 0.0
308 1 140.2746539323 2.2377106541 3.8758291643
309 1 142.1083122132 0.0 2.5838860829
310 1 142.1083122132 2.2377106541 6.4597152472
311 1 141.1914849917 2.2377106541 1.2919430814
312 1 141.1914849917 0.0 5.1677722456
313 1 143.0251394447 0.0 0.0
314 1 143.0251394447 2.2377106541 3.8758291643
315 1 144.8587939078 0.0 2.5838860829
316 1 144.8587939078 2.2377106541 6.4597152472
317 1 143.9419666762 2.2377106541 1.2919430814
318 1 143.9419666762 0.0 5.1677722456
319 1 145.7756211293 0.0 0.0
320 1 145.7756211293 2.2377106541 3.8758291643
321 1 147.6092794102 0.0 2.5838860829
322 1 147.6092794102 2.2377106541 6.4597152472
323 1 146.6924521887 2.2377106541 1.2919430814
324 1 146.6924521887 0.0 5.1677722456
325 1 148.5261066417 0.0 0.0
326 1 148.5261066417 2.2377106541 3.8758291643
327 1 150.3597610947 0.0 2.5838860829
328 1 150.3597610947 2.2377106541 6.4597152472
329 1 149.4429338732 2.2377106541 1.2919430814
330 1 149.4429338732 0.0 5.1677722456
331 1 151.2765883263 0.0 0.0
332 1 151.2765883263 2.2377106541 3.8758291643
333 1 153.1102466072 0.0 2.5838860829
334 1 153.1102466072 2.2377106541 6.4597152472
335 1 152.1934155577 2.2377106541 1.2919430814
336 1 152.1934155577 0.0 5.1677722456
337 1 154.0270738386 0.0 0.0
338 1 154.0270738386 2.2377106541 3.8758291643
339 1 155.8607282916 0.0 2.5838860829
340 1 155.8607282916 2.2377106541 6.4597152472
341 1 154.9439010701 2.2377106541 1.2919430814
342 1 154.9439010701 0.0 5.1677722456
343 1 156.7775555231 0.0 0.0
344 1 156.7775555231 2.2377106541 3.8758291643
345 1 158.611213804 0.0 2.5838860829
346 1 158.611213804 2.2377106541 6.4597152472
347 1 157.6943827546 2.2377106541 1.2919430814
348 1 157.6943827546 0.0 5.1677722456
349 1 159.5280410356 0.0 0.0
350 1 159.5280410356 2.2377106541 3.8758291643
351 1 161.3616954886 0.0 2.5838860829
352 1 161.3616954886 2.2377106541 6.4597152472
353 1 160.4448682671 2.2377106541 1.2919430814
354 1 160.4448682671 0.0 5.1677722456
355 1 162.2785227201 0.0 0.0
356 1 162.2785227201 2.2377106541 3.8758291643
357 1 164.1121771732 0.0 2.5838860829
358 1 164.1121771732 2.2377106541 6.4597152472
359 1 163.1953499516 2.2377106541 1.2919430814
360 1 163.1953499516 0.0 5.1677722456
361 1 165.0290082325 0.0 0.0
362 1 165.0290082325 2.2377106541 3.8758291643
363 1 166.8626626856 0.0 2.5838860829
364 1 166.8626626856 2.2377106541 6.4597152472
365 1 165.9458354541 2.2377106541 1.2919430814
366 1 165.9458354541 0.0 5.1677722456
367 1 167.779489917 0.0 0.0
368 1 167.779489917 2.2377106541 3.8758291643
369 1 169.61314437 0.0 2.5838860829
370 1 169.61314437 2.2377106541 6.4597152472
371 1 168.6963171485 2.2377106541 1.2919430814
372 1 168.6963171485 0.0 5.1677722456
373 1 170.5299754294 0.0 0.0
374 1 170.5299754294 2.2377106541 3.8758291643
375 1 172.3636298825 0.0 2.5838860829
376 1 172.3636298825 2.2377106541 6.4597152472
377 1 171.4468026509 2.2377106541 1.2919430814
378 1 171.4468026509 0.0 5.1677722456
379 1 173.280457114 0.0 0.0
380 1 173.280457114 2.2377106541 3.8758291643
381 1 175.114111567 0.0 2.5838860829
382 1 175.114111567 2.2377106541 6.4597152472
383 1 174.1972843355 2.2377106541 1.2919430814
384 1 174.1972843355 0.0 5.1677722456
385 1 176.0309387985 0.0 0.0
386 1 176.0309387985 2.2377106541 3.8758291643
387 1 177.8645970794 0.0 2.5838860829
388 1 177.8645970794 2.2377106541 6.4597152472
389 1 176.9477698479 2.2377106541 1.2919430814
390 1 176.9477698479 0.0 5.1677722456
391 1 178.781424311 0.0 0.0
392 1 178.781424311 2.2377106541 3.8758291643
393 1 180.615078764 0.0 2.5838860829
394 1 180.615078764 2.2377106541 6.4597152472
395 1 179.6982515325 2.2377106541 1.2919430814
396 1 179.6982515325 0.0 5.1677722456
397 1 181.5319059954 0.0 0.0
398 1 181.5319059954 2.2377106541 3.8758291643
399 1 183.3655642763 0.0 2.5838860829
400 1 183.3655642763 2.2377106541 6.4597152472
401 1 182.4487370449 2.2377106541 1.2919430814
402 1 182.4487370449 0.0 5.1677722456
403 1 184.2823915078 0.0 0.0
404 1 184.2823915078 2.2377106541 3.8758291643
405 1 186.1160459609 0.0 2.5838860829
406 1 186.1160459609 2.2377106541 6.4597152472
407 1 185.1992187293 2.2377106541 1.2919430814
408 1 185.1992187293 0.0 5.1677722456
409 1 187.0328731924 0.0 0.0
410 1 187.0328731924 2.2377106541 3.8758291643
411 1 188.8665314733 0.0 2.5838860829
412 1 188.8665314733 2.2377106541 6.4597152472
413 1 187.9497004139 2.2377106541 1.2919430814
414 1 187.9497004139 0.0 5.1677722456
415 1 189.7833586948 0.0 0.0
416 1 189.7833586948 2.2377106541 3.8758291643
417 1 191.6170131578 0.0 2.5838860829
418 1 191.6170131578 2.2377106541 6.4597152472
419 1 190.7001859263 2.2377106541 1.2919430814
420 1 190.7001859263 0.0 5.1677722456
421 1 192.5338403894 0.0 0.0
422 1 192.5338403894 2.2377106541 3.8758291643
423 1 194.3674986703 0.0 2.5838860829
424 1 194.3674986703 2.2377106541 6.4597152472
425 1 193.4506676109 2.2377106541 1.2919430814
426 1 193.4506676109 0.0 5.1677722456
427 1 195.2843258918 0.0 0.0
428 1 195.2843258918 2.2377106541 3.8758291643
429 1 197.1179803547 0.0 2.5838860829
430 1 197.1179803547 2.2377106541 6.4597152472
431 1 196.2011531233 2.2377106541 1.2919430814
432 1 196.2011531233 0.0 5.1677722456
433 1 198.0348075762 0.0 0.0
434 1 198.0348075762 2.2377106541 3.8758291643
435 1 199.8684620393 0.0 2.5838860829
436 1 199.8684620393 2.2377106541 6.4597152472
437 1 198.9516348078 2.2377106541 1.2919430814
438 1 198.9516348078 0.0 5.1677722456
439 1 200.7852930887 0.0 0.0
440 1 200.7852930887 2.2377106541 3.8758291643
441 1 202.6189475517 0.0 2.5838860829
442 1 202.6189475517 2.2377106541 6.4597152472
443 1 201.7021203202 2.2377106541 1.2919430814
444 1 201.7021203202 0.0 5.1677722456
445 1 203.5357747732 0.0 0.0
446 1 203.5357747732 2.2377106541 3.8758291643
447 1 205.3694292363 0.0 2.5838860829
448 1 205.3694292363 2.2377106541 6.4597152472
449 1 204.4526020047 2.2377106541 1.2919430814
450 1 204.4526020047 0.0 5.1677722456
451 1 206.2862602857 0.0 0.0
452 1 206.2862602857 2.2377106541 3.8758291643
453 1 208.1199147487 0.0 2.5838860829
454 1 208.1199147487 2.2377106541 6.4597152472
455 1 207.2030875172 2.2377106541 1.2919430814
456 1 207.2030875172 0.0 5.1677722456
457 1 209.0367419702 0.0 0.0
458 1 209.0367419702 2.2377106541 3.8758291643
459 1 210.8703964331 0.0 2.5838860829
460 1 210.8703964331 2.2377106541 6.4597152472
461 1 209.9535692017 2.2377106541 1.2919430814
462 1 209.9535692017 0.0 5.1677722456
463 1 211.7872236547 0.0 0.0
464 1 211.7872236547 2.2377106541 3.8758291643
465 1 213.6208819357 0.0 2.5838860829
466 1 213.6208819357 2.2377106541 6.4597152472
467 1 212.704054714 2.2377106541 1.2919430814
468 1 212.704054714 0.0 5.1677722456
469 1 214.5377091671 0.0 0.0
470 1 214.5377091671 2.2377106541 3.8758291643
471 1 216.3713636301 0.0 2.5838860829
472 1 216.3713636301 2.2377106541 6.4597152472
473 1 215.4545363986 2.2377106541 1.2919430814
474 1 215.4545363986 0.0 5.1677722456
475 1 217.2881908516 0.0 0.0
476 1 217.2881908516 2.2377106541 3.8758291643
477 1 219.1218491326 0.0 2.5838860829
478 1 219.1218491326 2.2377106541 6.4597152472
479 1 218.205021911 2.2377106541 1.2919430814
480 1 218.205021911 0.0 5.1677722456
481 1 220.0386763641 0.0 0.0
482 1 220.0386763641 2.2377106541 3.8758291643
483 1 221.8723308171 0.0 2.5838860829
484 1 221.8723308171 2.2377106541 6.4597152472
485 1 220.9555035956 2.2377106541 1.2919430814
486 1 220.9555035956 0.0 5.1677722456
487 1 222.7891580486 0.0 0.0
488 1 222.7891580486 2.2377106541 3.8758291643
489 1 224.6228163295 0.0 2.5838860829
490 1 224.6228163295 2.2377106541 6.4597152472
491 1 223.70598528 2.2377106541 1.2919430814
492 1 223.70598528 0.0 5.1677722456
493 1 225.5396435611 0.0 0.0
494 1 225.5396435611 2.2377106541 3.8758291643
495 1 227.373298014 0.0 2.5838860829
496 1 227.373298014 2.2377106541 6.4597152472
497 1 226.4564707925 2.2377106541 1.2919430814
498 1 226.4564707925 0.0 5.1677722456
499 1 228.2901252455 0.0 0.0
500 1 228.2901252455 2.2377106541 3.8758291643
501 1 230.1237835264 0.0 2.5838860829
502 1 230.1237835264 2.2377106541 6.4597152472
503 1 229.206952477 2.2377106541 1.2919430814
504 1 229.206952477 0.0 5.1677722456
505 1 231.0406107579 0.0 0.0
506 1 231.0406107579 2.2377106541 3.8758291643
507 1 232.874265211 0.0 2.5838860829
508 1 232.874265211 2.2377106541 6.4597152472
509 1 231.9574379894 2.2377106541 1.2919430814
510 1 231.9574379894 0.0 5.1677722456
511 1 233.7910924425 0.0 0.0
512 1 233.7910924425 2.2377106541 3.8758291643
513 1 235.6247468955 0.0 2.5838860829
514 1 235.6247468955 2.2377106541 6.4597152472
515 1 234.707919674 2.2377106541 1.2919430814
516 1 234.707919674 0.0 5.1677722456
517 1 236.5415779549 0.0 0.0
518 1 236.5415779549 2.2377106541 3.8758291643
519 1 238.3752324079 0.0 2.5838860829
520 1 238.3752324079 2.2377106541 6.4597152472
521 1 237.4584051764 2.2377106541 1.2919430814
522 1 237.4584051764 0.0 5.1677722456
523 1 239.2920596395 0.0 0.0
524 1 239.2920596395 2.2377106541 3.8758291643
525 1 241.1257140924 0.0 2.5838860829
526 1 241.1257140924 2.2377106541 6.4597152472
527 1 240.2088868709 2.2377106541 1.2919430814
528 1 240.2088868709 0.0 5.1677722456
529 1 242.0425451518 0.0 0.0
530 1 242.0425451518 2.2377106541 3.8758291643
531 1 243.8761996048 0.0 2.5838860829
532 1 243.8761996048 2.2377106541 6.4597152472
533 1 242.9593723734 2.2377106541 1.2919430814
534 1 242.9593723734 0.0 5.1677722456
535 1 244.7930268363 0.0 0.0
536 1 244.7930268363 2.2377106541 3.8758291643
537 1 246.6266812894 0.0 2.5838860829
538 1 246.6266812894 2.2377106541 6.4597152472
539 1 245.7098540679 2.2377106541 1.2919430814
540 1 245.7098540679 0.0 5.1677722456
541 1 247.5435085209 0.0 0.0
542 1 247.5435085209 2.2377106541 3.8758291643
543 1 249.3771668018 0.0 2.5838860829
544 1 249.3771668018 2.2377106541 6.4597152472
545 1 248.4603395703 2.2377106541 1.2919430814
546 1 248.4603395703 0.0 5.1677722456
547 1 250.2939940333 0.0 0.0
548 1 250.2939940333 2.2377106541 3.8758291643
549 1 252.1276484864 0.0 2.5838860829
550 1 252.1276484864 2.2377106541 6.4597152472
551 1 251.2108212548 2.2377106541 1.2919430814
552 1 251.2108212548 0.0 5.1677722456
553 1 253.0444757178 0.0 0.0
554 1 253.0444757178 2.2377106541 3.8758291643
555 1 254.8781339988 0.0 2.5838860829
556 1 254.8781339988 2.2377106541 6.4597152472
557 1 253.9613067673 2.2377106541 1.2919430814
558 1 253.9613067673 0.0 5.1677722456
559 1 255.7949612302 0.0 0.0
560 1 255.7949612302 2.2377106541 3.8758291643
561 1 257.6286156832 0.0 2.5838860829
562 1 257.6286156832 2.2377106541 6.4597152472
563 1 256.7117884517 2.2377106541 1.2919430814
564 1 256.7117884517 0.0 5.1677722456
565 1 258.5454429147 0.0 0.0
566 1 258.5454429147 2.2377106541 3.8758291643
567 1 260.3791011957 0.0 2.5838860829
568 1 260.3791011957 2.2377106541 6.4597152472
569 1 259.4622701363 2.2377106541 1.2919430814
570 1 259.4622701363 0.0 5.1677722456
571 1 261.2959284172 0.0 0.0
572 1 261.2959284172 2.2377106541 3.8758291643
573 1 263.1295828802 0.0 2.5838860829
574 1 263.1295828802 2.2377106541 6.4597152472
575 1 262.2127556487 2.2377106541 1.2919430814
576 1 262.2127556487 0.0 5.1677722456
577 1 264.0464101117 0.0 0.0
578 1 264.0464101117 2.2377106541 3.8758291643
579 1 265.8800683926 0.0 2.5838860829
580 1 265.8800683926 2.2377106541 6.4597152472
581 1 264.9632373332 2.2377106541 1.2919430814
582 1 264.9632373332 0.0 5.1677722456
583 1 266.7968956142 0.0 0.0
584 1 266.7968956142 2.2377106541 3.8758291643
585 1 268.6305500772 0.0 2.5838860829
586 1 268.6305500772 2.2377106541 6.4597152472
587 1 267.7137228457 2.2377106541 1.2919430814
588 1 267.7137228457 0.0 5.1677722456
589 1 269.5473773086 0.0 0.0
590 1 269.5473773086 2.2377106541 3.8758291643
591 1 271.3810317616 0.0 2.5838860829
592 1 271.3810317616 2.2377106541 6.4597152472
593 1 270.4642045301 2.2377106541 1.2919430814
594 1 270.4642045301 0.0 5.1677722456
595 1 272.2978628111 0.0 0.0
596 1 272.2978628111 2.2377106541 3.8758291643
597 1 274.1315172741 0.0 2.5838860829
598 1 274.1315172741 2.2377106541 6.4597152472
599 1 273.2146900426 2.2377106541 1.2919430814
600 1 273.2146900426 0.0 5.1677722456
601 1 275.0483444956 0.0 0.0
602 1 275.0483444956 2.2377106541 3.8758291643
603 1 276.8819989586 0.0 2.5838860829
604 1 276.8819989586 2.2377106541 6.4597152472
605 1 275.9651717271 2.2377106541 1.2919430814
606 1 275.9651717271 0.0 5.1677722456
607 1 277.798830008 0.0 0.0
608 1 277.798830008 2.2377106541 3.8758291643
609 1 279.6324844711 0.0 2.5838860829
610 1 279.6324844711 2.2377106541 6.4597152472
611 1 278.7156572395 2.2377106541 1.2919430814
612 1 278.7156572395 0.0 5.1677722456
613 1 280.5493116926 0.0 0.0
614 1 280.5493116926 2.2377106541 3.8758291643
615 1 282.3829661555 0.0 2.5838860829
616 1 282.3829661555 2.2377106541 6.4597152472
617 1 281.4661389241 2.2377106541 1.2919430814
618 1 281.4661389241 0.0 5.1677722456
619 1 283.2997933771 0.0 0.0
620 1 283.2997933771 2.2377106541 3.8758291643
621 1 285.133451658 0.0 2.5838860829
622 1 285.133451658 2.2377106541 6.4597152472
623 1 284.2166244365 2.2377106541 1.2919430814
624 1 284.2166244365 0.0 5.1677722456
625 1 286.0502788894 0.0 0.0
626 1 286.0502788894 2.2377106541 3.8758291643
627 1 287.8839333525 0.0 2.5838860829
628 1 287.8839333525 2.2377106541 6.4597152472
629 1 286.967106121 2.2377106541 1.2919430814
630 1 286.967106121 0.0 5.1677722456
631 1 288.800760574 0.0 0.0
632 1 288.800760574 2.2377106541 3.8758291643
633 1 290.6344188549 0.0 2.5838860829
634 1 290.6344188549 2.2377106541 6.4597152472
635 1 289.7175878055 2.2377106541 1.2919430814
636 1 289.7175878055 0.0 5.1677722456
637 1 291.5512460864 0.0 0.0
638 1 291.5512460864 2.2377106541 3.8758291643
639 1 293.3849005495 0.0 2.5838860829
640 1 293.3849005495 2.2377106541 6.4597152472
641 1 292.4680733179 2.2377106541 1.2919430814
642 1 292.4680733179 0.0 5.1677722456
643 1 294.301727771 0.0 0.0
644 1 294.301727771 2.2377106541 3.8758291643
645 1 296.1353860519 0.0 2.5838860829
646 1 296.1353860519 2.2377106541 6.4597152472
647 1 295.2185550025 2.2377106541 1.2919430814
648 1 295.2185550025 0.0 5.1677722456
649 1 297.0522132834 0.0 0.0
650 1 297.0522132834 2.2377106541 3.8758291643
651 1 298.8858677364 0.0 2.5838860829
652 1 298.8858677364 2.2377106541 6.4597152472
653 1 297.9690405149 2.2377106541 1.2919430814
654 1 297.9690405149 0.0 5.1677722456
655 1 299.8026949679 0.0 0.0
656 1 299.8026949679 2.2377106541 3.8758291643
657 1 301.6363494309 0.0 2.5838860829
658 1 301.6363494309 2.2377106541 6.4597152472
659 1 300.7195221994 2.2377106541 1.2919430814
660 1 300.7195221994 0.0 5.1677722456
661 1 302.5531804803 0.0 0.0
662 1 302.5531804803 2.2377106541 3.8758291643
663 1 304.3868349333 0.0 2.5838860829
664 1 304.3868349333 2.2377106541 6.4597152472
665 1 303.4700077118 2.2377106541 1.2919430814
666 1 303.4700077118 0.0 5.1677722456
667 1 305.3036621648 0.0 0.0
668 1 305.3036621648 2.2377106541 3.8758291643
669 1 307.1373166279 0.0 2.5838860829
670 1 307.1373166279 2.2377106541 6.4597152472
671 1 306.2204893964 2.2377106541 1.2919430814
672 1 306.2204893964 0.0 5.1677722456
673 1 308.0541476773 0.0 0.0
674 1 308.0541476773 2.2377106541 3.8758291643
675 1 309.8878021303 0.0 2.5838860829
676 1 309.8878021303 2.2377106541 6.4597152472
677 1 308.9709748988 2.2377106541 1.2919430814
678 1 308.9709748988 0.0 5.1677722456
679 1 310.8046293618 0.0 0.0
680 1 310.8046293618 2.2377106541 3.8758291643
681 1 312.6382838149 0.0 2.5838860829
682 1 312.6382838149 2.2377106541 6.4597152472
683 1 311.7214565932 2.2377106541 1.2919430814
684 1 311.7214565932 0.0 5.1677722456
685 1 313.5551110463 0.0 0.0
686 1 313.5551110463 2.2377106541 3.8758291643
687 1 315.3887693272 0.0 2.5838860829
688 1 315.3887693272 2.2377106541 6.4597152472
689 1 314.4719420958 2.2377106541 1.2919430814
690 1 314.4719420958 0.0 5.1677722456
691 1 316.3055965587 0.0 0.0
692 1 316.3055965587 2.2377106541 3.8758291643
693 1 318.1392510117 0.0 2.5838860829
694 1 318.1392510117 2.2377106541 6.4597152472
695 1 317.2224237902 2.2377106541 1.2919430814
696 1 317.2224237902 0.0 5.1677722456
697 1 319.0560782432 0.0 0.0
698 1 319.0560782432 2.2377106541 3.8758291643
699 1 320.8897365242 0.0 2.5838860829
700 1 320.8897365242 2.2377106541 6.4597152472
701 1 319.9729092926 2.2377106541 1.2919430814
702 1 319.9729092926 0.0 5.1677722456
703 1 321.8065637557 0.0 0.0
704 1 321.8065637557 2.2377106541 3.8758291643
705 1 323.6402182087 0.0 2.5838860829
706 1 323.6402182087 2.2377106541 6.4597152472
707 1 322.7233909772 2.2377106541 1.2919430814
708 1 322.7233909772 0.0 5.1677722456
709 1 324.5570454402 0.0 0.0
710 1 324.5570454402 2.2377106541 3.8758291643
711 1 326.3907037211 0.0 2.5838860829
712 1 326.3907037211 2.2377106541 6.4597152472
713 1 325.4738726716 2.2377106541 1.2919430814
714 1 325.4738726716 0.0 5.1677722456
715 1 327.3075309527 0.0 0.0
716 1 327.3075309527 2.2377106541 3.8758291643
717 1 329.1411854056 0.0 2.5838860829
718 1 329.1411854056 2.2377106541 6.4597152472
719 1 328.2243581742 2.2377106541 1.2919430814
720 1 328.2243581742 0.0 5.1677722456
721 1 330.0580126371 0.0 0.0
722 1 330.0580126371 2.2377106541 3.8758291643
723 1 331.891670918 0.0 2.5838860829
724 1 331.891670918 2.2377106541 6.4597152472
725 1 330.9748398686 2.2377106541 1.2919430814
726 1 330.9748398686 0.0 5.1677722456
727 1 332.8084981495 0.0 0.0
728 1 332.8084981495 2.2377106541 3.8758291643
729 1 334.6421526026 0.0 2.5838860829
730 1 334.6421526026 2.2377106541 6.4597152472
731 1 333.7253253711 2.2377106541 1.2919430814
732 1 333.7253253711 0.0 5.1677722456
733 1 335.5589798341 0.0 0.0
734 1 335.5589798341 2.2377106541 3.8758291643
735 1 337.3926342871 0.0 2.5838860829
736 1 337.3926342871 2.2377106541 6.4597152472
737 1 336.4758070556 2.2377106541 1.2919430814