# LAMMPS data file written by OVITO Basic 3.3.0
74970 atoms
1 atom types
0.0 396.3952007417 xlo xhi
0.0 396.9975070882 ylo yhi
0.0 8.5803090353 zlo zhi
0.0 0.0309550294 0.0 xy xz yz

Masses

1 1.008  # H

Atoms  # atomic

1 1 -0.0038729678 0.0 -1.0735334241
2 1 4.0409298881 2.3352782901 -1.0861423951
3 1 2.6995476322 0.0 0.8265914172
4 1 6.7443507272 2.3352782901 0.8140476635
5 1 1.347827548 2.3352782901 -0.1261858562
6 1 5.3926500553 0.0 -0.1333437433
7 1 8.0857526242 0.0 -1.0932354081
8 1 12.1305561978 2.3352782901 -1.1056444514
9 1 10.7891737027 0.0 0.8070198573
10 1 14.8339814895 2.3352782901 0.7946803279
11 1 9.4374533793 2.3352782901 -0.1458208544
12 1 13.4822805681 0.0 -0.1527831415
13 1 16.1753836258 0.0 -1.1125409282
14 1 20.2201879484 2.3352782901 -1.124736915
15 1 18.8788051828 0.0 0.7878499528
16 1 22.9236097863 2.3352782901 0.7757279948
17 1 17.5270846306 2.3352782901 -0.1650516382
18 1 21.5719085735 0.0 -0.171815714
19 1 24.2650121307 0.0 -1.1314344835
20 1 28.3098172856 2.3352782901 -1.1434037752
21 1 26.9684341974 0.0 0.7690971209
22 1 31.0132396435 2.3352782901 0.7572064873
23 1 25.6167134579 2.3352782901 -0.183862114
24 1 29.6615381083 0.0 -0.1904261788
25 1 32.3546421855 0.0 -1.1499009376
26 1 36.3994482039 2.3352782901 -1.16162949
27 1 35.0580647725 0.0 0.7507762798
28 1 39.1028750665 2.3352782901 0.7391311397
29 1 33.7063438353 2.3352782901 -0.202236573
30 1 37.7511731879 0.0 -0.2085998259
31 1 40.4442777958 0.0 -1.1679258299
32 1 44.4890847399 2.3352782901 -1.1793992659
33 1 43.147700934 0.0 0.7329016609
34 1 47.1925081904 2.3352782901 0.7215164852
35 1 41.7959798096 2.3352782901 -0.2201599201
36 1 45.8408059164 0.0 -0.226322694
37 1 48.5339110861 0.0 -1.185495522
38 1 52.5787190082 2.3352782901 -1.1966993084
39 1 51.2373347757 0.0 0.7154865076
40 1 55.2821430411 2.3352782901 0.7043758502
41 1 49.8856135056 2.3352782901 -0.237617976
42 1 53.9304403199 0.0 -0.2435819768
43 1 56.6235460513 0.0 -1.2025976862
44 1 60.6683550033 2.3352782901 -1.2135172273
45 1 59.3269703235 0.0 0.6985426585
46 1 63.3717835824 2.3352782901 0.6877210734
47 1 57.9752489182 2.3352782901 -0.2545978824
48 1 62.0200804138 0.0 -0.2603663872
49 1 64.7131867278 0.0 -1.2192215863
50 1 68.757996741 2.3352782901 -1.2298425051
51 1 67.4166115722 0.0 0.6820802256
52 1 71.4614219598 2.3352782901 0.6715619964
53 1 66.0648900628 2.3352782901 -0.2710884246
54 1 70.1097182815 0.0 -0.2766664685
55 1 72.802825178 0.0 -1.2353585255
56 1 76.8476363355 2.3352782901 -1.24566684
57 1 75.5062506259 0.0 0.6661071049
58 1 79.5510621578 2.3352782901 0.6559059949
59 1 74.1545290436 2.3352782901 -0.2870804894
60 1 78.1993579178 0.0 -0.2924751675
61 1 80.8924654176 0.0 -1.2510023553
62 1 84.9372777403 2.3352782901 -1.2609847807
63 1 83.595891448 0.0 0.650628529
64 1 87.64070814 2.3352782901 0.6407575006
65 1 82.244169845 2.3352782901 -0.3025676374
66 1 86.2889993432 0.0 -0.3077882813
67 1 88.9821114102 0.0 -1.2661499029
68 1 93.02692495 2.3352782901 -1.2757942052
69 1 91.685538044 0.0 0.6356464956
70 1 95.7303519999 2.3352782901 0.6261174082
71 1 90.333816441 2.3352782901 -0.3175465917
72 1 94.3786465322 0.0 -0.3226049566
73 1 97.0717552285 0.0 -1.2808015532
74 1 101.1165700271 2.3352782901 -1.2900968609
75 1 99.7751824552 0.0 0.6211593816
76 1 103.8199976803 2.3352782901 0.611982524
77 1 98.4234609043 2.3352782901 -0.3320177056
78 1 102.4682915364 0.0 -0.3369282107
79 1 105.1614008049 0.0 -1.2949617482
80 1 109.2062169039 2.3352782901 -1.3038989588
81 1 107.8648286246 0.0 0.6071612364
82 1 111.9096491241 2.3352782901 0.5983450353
83 1 106.5131071985 2.3352782901 -0.3459856713
84 1 110.557938278 0.0 -0.3507654817
85 1 113.2510521135 0.0 -1.3086395493
86 1 117.2958695129 2.3352782901 -1.3172117237
87 1 115.9544804949 0.0 0.5936413759
88 1 119.9992983417 2.3352782901 0.5851919794
89 1 114.6027592248 2.3352782901 -0.3594599764
90 1 118.6475907204 0.0 -0.3641291595
91 1 121.3407011229 0.0 -1.3218490005
92 1 125.3855198747 2.3352782901 -1.3300518112
93 1 124.0441300557 0.0 0.5805839772
94 1 128.0889492444 2.3352782901 0.5725047351
95 1 122.6924090041 2.3352782901 -0.3724554035
96 1 126.7372408222 0.0 -0.3770368987
97 1 129.4303517552 0.0 -1.3346096703
98 1 133.475171849 2.3352782901 -1.3424417751
99 1 132.1337812083 0.0 0.5679675575
100 1 136.178601739 2.3352782901 0.5602587508
101 1 130.7820604583 2.3352782901 -0.3849925201
102 1 134.8268924845 0.0 -0.3895120851
103 1 137.5200078909 0.0 -1.3469468902
104 1 141.5648292955 2.3352782901 -1.3544103073
105 1 140.2234378328 0.0 0.5557648399
106 1 144.2682596743 2.3352782901 0.5484232435
107 1 138.8717174262 2.3352782901 -0.3970979683
108 1 142.9165495772 0.0 -0.4015840144
109 1 145.6096614777 0.0 -1.3588919323
110 1 149.6544841931 2.3352782901 -1.3659923419
111 1 148.3130918566 0.0 0.5439425445
112 1 152.3579150089 2.3352782901 0.536961199
113 1 146.9613718557 2.3352782901 -0.4088045597
114 1 151.0062040276 0.0 -0.4132879115
115 1 153.6993163338 0.0 -1.3704820084
116 1 157.7441403287 2.3352782901 -1.3772290231
117 1 156.4027470975 0.0 0.5324615038
118 1 160.447571519 2.3352782901 0.5258294543
119 1 155.0510276064 2.3352782901 -0.4201514206
120 1 159.0958596534 0.0 -0.4246649103
121 1 161.7889762873 0.0 -1.3817601253
122 1 165.8338014994 2.3352782901 -1.3881673939
123 1 164.4924073943 0.0 0.5212768592
124 1 168.5372330018 2.3352782901 0.5149791046
125 1 163.1406884339 2.3352782901 -0.431183659
126 1 167.1855202623 0.0 -0.435761617
127 1 169.878633224 0.0 -1.3927746679
128 1 173.9234596116 2.3352782901 -1.3988598863
129 1 172.5820646015 0.0 0.5103386028
130 1 176.6268913637 2.3352782901 0.5043561052
131 1 171.2303462651 2.3352782901 -0.4419519696
132 1 175.2751777296 0.0 -0.4466296938
133 1 177.9682909201 0.0 -1.403578755
134 1 182.0131183896 2.3352782901 -1.409363572
135 1 180.6717225057 0.0 0.4995921285
136 1 184.7165503186 2.3352782901 0.493902001
137 1 179.3200048454 2.3352782901 -0.4525120091
138 1 183.3648358106 0.0 -0.4573250159
139 1 186.0579531311 0.0 -1.4142295308
140 1 190.102781589 2.3352782901 -1.4197392468
141 1 188.7613848624 0.0 0.4889792202
142 1 192.806213622 2.3352782901 0.4835550179
143 1 187.40966792 2.3352782901 -0.4629234084
144 1 191.4544982817 0.0 -0.4679068396
145 1 194.1476117218 0.0 -1.4247870839
146 1 198.1924410745 2.3352782901 -1.4300502246
147 1 196.8510435051 0.0 0.4784390298
148 1 200.8958731386 2.3352782901 0.4732512497
149 1 195.499327343 2.3352782901 -0.4732488049
150 1 199.5441569661 0.0 -0.4784365747
151 1 202.2372704166 0.0 -1.4353133443
152 1 206.2821005391 2.3352782901 -1.4403612023
153 1 204.9407021895 0.0 0.4679092947
154 1 208.9855325512 2.3352782901 0.4629258531
155 1 203.5889868492 2.3352782901 -0.4835525836
156 1 207.6338156089 0.0 -0.4889767546
157 1 210.326928997 0.0 -1.4458708768
158 1 214.3717637488 2.3352782901 -1.4507368668
159 1 213.0303646607 0.0 0.4573274918
160 1 217.0751956257 2.3352782901 0.4525144642
161 1 211.6786501527 2.3352782901 -0.4938995458
162 1 215.7234779656 0.0 -0.4995896525
163 1 218.4165912185 0.0 -1.4565216422
164 1 222.4614225268 2.3352782901 -1.4612405316
165 1 221.120022752 0.0 0.4466321802
166 1 225.1648542165 2.3352782901 0.4419544455
167 1 219.7683091074 2.3352782901 -0.5043536396
168 1 223.8131358697 0.0 -0.510336106
169 1 226.5062489145 0.0 -1.4673257291
170 1 230.5510806286 2.3352782901 -1.4719330032
171 1 229.2096802088 0.0 0.4357641242
172 1 233.2545120374 2.3352782901 0.4311861558
173 1 227.8579674694 2.3352782901 -0.5149766286
174 1 231.9027930768 0.0 -0.5212743521
175 1 234.5959058407 0.0 -1.4783402302
176 1 238.6407417994 2.3352782901 -1.4828713532
177 1 237.2993408179 0.0 0.4246674382
178 1 241.3441728648 2.3352782901 0.4201539486
179 1 235.9476289523 2.3352782901 -0.5258269472
180 1 239.9924533737 0.0 -0.532458955
181 1 242.6855658048 0.0 -1.4896183263
182 1 246.730397935 2.3352782901 -1.4941080032
183 1 245.388996454 0.0 0.4132904809
184 1 249.4338286156 2.3352782901 0.4088071292
185 1 244.0372854727 2.3352782901 -0.5369586606
186 1 248.0821086251 0.0 -0.5439399646
187 1 250.7752206608 0.0 -1.5012083712
188 1 254.8200528326 2.3352782901 -1.5056899961
189 1 253.478650894 0.0 0.4015866256
190 1 257.5234830554 2.3352782901 0.3971005691
191 1 252.1269407969 2.3352782901 -0.5484206635
192 1 256.1717626385 0.0 -0.5557622182
193 1 258.8648742372 0.0 -1.5131533716
194 1 262.9097102894 2.3352782901 -1.5176584868
195 1 261.5683079867 0.0 0.3895147275
196 1 265.6131400129 2.3352782901 0.3849951832
197 1 260.2165987323 2.3352782901 -0.5602561292
198 1 264.261419263 0.0 -0.5679649047
199 1 266.9545303728 0.0 -1.5254905604
200 1 270.9993622638 2.3352782901 -1.5300483987
201 1 269.6579596594 0.0 0.3770395827
202 1 273.7027914671 2.3352782901 0.372458098
203 1 268.3062512268 2.3352782901 -0.5725020824
204 1 272.3510704154 0.0 -0.5805812723
205 1 275.0441810052 0.0 -1.5382511781
206 1 279.0890126152 2.3352782901 -1.5428884341
207 1 277.7476097612 0.0 0.3641318956
208 1 281.7924412568 2.3352782901 0.3594627123
209 1 276.39590214 2.3352782901 -0.5851892642
210 1 280.4407199868 0.0 -0.5936386295
211 1 283.133830025 0.0 -1.5514605774
212 1 287.1786652241 2.3352782901 -1.5562011469
213 1 285.8372621933 0.0 0.3507682592
214 1 289.8820932832 2.3352782901 0.3459884594
215 1 284.4855513576 2.3352782901 -0.5983422783
216 1 288.530371857 0.0 -0.6071584379
217 1 291.2234813232 0.0 -1.565138316
218 1 295.268312101 2.3352782901 -1.5700032032
219 1 293.9269089452 0.0 0.3369310404
220 1 297.971739567 2.3352782901 0.3320205457
221 1 292.5752027909 2.3352782901 -0.6119797152
222 1 296.6200180264 0.0 -0.6211565311
223 1 299.31312691 0.0 -1.5792984799
224 1 303.3579571885 2.3352782901 -1.5843057966
225 1 302.0165539391 0.0 0.322607828
226 1 306.0613840303 2.3352782901 0.3175494837
227 1 300.6648484817 2.3352782901 -0.6261145473
228 1 304.7096624273 0.0 -0.6356436035
229 1 307.4027707179 0.0 -1.5939500676
230 1 311.4476043877 2.3352782901 -1.5991151794
231 1 310.1062011279 0.0 0.307791215
232 1 314.1510306262 2.3352782901 0.3025706024
233 1 308.7544923312 2.3352782901 -0.6407545877
234 1 312.7993090232 0.0 -0.650625585
235 1 315.4924167208 0.0 -1.6090975737
236 1 319.5372458029 2.3352782901 -1.6144330578
237 1 318.1958425535 0.0 0.2924781532
238 1 322.240671438 2.3352782901 0.287083496
239 1 316.8441383134 2.3352782901 -0.65590303
240 1 320.8889498558 0.0 -0.6661041088
241 1 323.5820569501 0.0 -1.6247413515
242 1 327.6268853976 2.3352782901 -1.6302573511
243 1 326.2854822001 0.0 0.2766694959
244 1 330.3303104084 2.3352782901 0.2710914727
245 1 324.9337785114 2.3352782901 -0.6715589794
246 1 328.9785888991 0.0 -0.6820771775
247 1 331.6716954107 0.0 -1.6408782386
248 1 335.7165271353 2.3352782901 -1.6465825664
249 1 334.3751200574 0.0 0.2603694665
250 1 338.4199515531 2.3352782901 0.2546009929
251 1 333.0234168888 2.3352782901 -0.6877180046
252 1 337.0682301582 0.0 -0.6985395583
253 1 339.7613360768 0.0 -1.6575020868
254 1 343.8061631303 2.3352782901 -1.6634004437
255 1 342.4647601514 0.0 0.2435851186
256 1 346.5095869655 2.3352782901 0.237621149
257 1 341.1130574405 2.3352782901 -0.7043727293
258 1 345.1578656955 0.0 -0.7154833554
259 1 347.8509710525 0.0 -1.6746042093
260 1 351.8957973985 2.3352782901 -1.6807004446
261 1 350.5543945548 0.0 0.2263258773
262 1 354.599220672 2.3352782901 0.2201631243
263 1 349.2026922809 2.3352782901 -0.7215133122
264 1 353.2474995372 0.0 -0.7328984567
265 1 355.9406043324 0.0 -1.6921738494
266 1 359.9854339242 2.3352782901 -1.6984701684
267 1 358.6440272937 0.0 0.2086030612
268 1 362.6888566359 2.3352782901 0.2022398188
269 1 357.2923254047 2.3352782901 -0.7391279251
270 1 361.3371356987 0.0 -0.750773034
271 1 364.0302399529 0.0 -1.7101987001
272 1 368.0750648425 2.3352782901 -1.7166958415
273 1 366.7336623733 0.0 0.1904294559
274 1 370.7784870237 2.3352782901 0.1838654118
275 1 365.3819608276 2.3352782901 -0.7572032207
276 1 369.4267662738 0.0 -0.7690938231
277 1 372.1198700079 0.0 -1.7286651125
278 1 376.1646941797 2.3352782901 -1.7353626498
279 1 374.8232919081 0.0 0.1718190327
280 1 378.8681158407 2.3352782901 0.1650549776
281 1 373.4715906954 2.3352782901 -0.7757246866
282 1 377.5163952885 0.0 -0.7878466134
283 1 380.2094985127 0.0 -1.7475586159
284 1 384.2543259407 2.3352782901 -1.7544550613
285 1 382.9129199137 0.0 0.1527865017
286 1 386.9577471023 2.3352782901 0.1458242458
287 1 381.5612189921 2.3352782901 -0.7946769781
288 1 385.6060267789 0.0 -0.8070164764
289 1 388.2991295143 0.0 -1.7668640838
290 1 392.3439522505 2.3352782901 -1.7739570865
291 1 391.0025504263 0.0 0.1333471451
292 1 395.0473729336 2.3352782901 0.1261892788
293 1 389.6508497544 2.3352782901 -0.8140442617
294 1 393.6956528391 0.0 -0.8265880049
295 1 -0.0038926298 4.6705605439 -1.0789843208
296 1 4.0409099764 7.0058388236 -1.0916599344
297 1 2.6995279702 4.6705605439 0.821139813
298 1 6.7443308155 7.0058388236 0.8085300617
299 1 1.3478076468 7.0058388236 -0.131702272
300 1 5.392630383 4.6705605439 -0.1387950145
301 1 8.0857329622 4.6705605439 -1.0986852853
302 1 12.130536307 7.0058388236 -1.1111588282
303 1 10.7891540511 4.6705605439 0.8015724978
304 1 14.8339616091 7.0058388236 0.7891693531
305 1 9.437433478 7.0058388236 -0.1513374158
306 1 13.4822609268 4.6705605439 -0.158226808
307 1 16.1753640054 4.6705605439 -1.1179796844
308 1 20.2201681097 7.0058388236 -1.1302373515
309 1 18.8787855832 4.6705605439 0.7824173761
310 1 22.9235899683 7.0058388236 0.7702348197
311 1 17.527064771 7.0058388236 -0.1705580045
312 1 21.5718890052 4.6705605439 -0.1772407902
313 1 24.2649925936 4.6705605439 -1.1368507065
314 1 28.3097975404 7.0058388236 -1.1488781415
315 1 26.9684147018 4.6705605439 0.7636911554
316 1 31.01321994 7.0058388236 0.7517437519
317 1 25.6166936711 7.0058388236 -0.1893466024
318 1 29.6615186439 4.6705605439 -0.1958203992
319 1 32.3546227733 4.6705605439 -1.1552818938
320 1 36.3994286044 7.0058388236 -1.1670642098
321 1 35.0580454226 4.6705605439 0.7454101583
322 1 39.102855519 7.0058388236 0.7337129089
323 1 33.7063241734 7.0058388236 -0.2076861068
324 1 37.7511538796 4.6705605439 -0.2139494686
325 1 40.4442585604 4.6705605439 -1.1732573088
326 1 44.4890653277 7.0058388236 -1.1847792235
327 1 43.1476817714 4.6705605439 0.7275900728
328 1 47.1924888612 7.0058388236 0.7161584262
329 1 41.7959603245 7.0058388236 -0.2255599142
330 1 45.840786837 4.6705605439 -0.2316125603
331 1 48.5338920795 4.6705605439 -1.1907618044
332 1 52.578699856 7.0058388236 -1.2020077339
333 1 51.2373158731 4.6705605439 0.7102457233
334 1 55.2821239826 7.0058388236 0.6990952634
335 1 49.8855942598 7.0058388236 -0.2429522118
336 1 53.930421511 4.6705605439 -0.248795276
337 1 56.6235273568 4.6705605439 -1.2077814507
338 1 60.6683361736 7.0058388236 -1.2187357176
339 1 59.326951733 4.6705605439 0.6933905195
340 1 63.3717648879 7.0058388236 0.6825369343
341 1 57.975229974 7.0058388236 -0.2598485081
342 1 62.0200619482 4.6705605439 -0.2654847264
343 1 64.713168387 4.6705605439 -1.2243039202
344 1 68.7579783065 7.0058388236 -1.2349509509
345 1 67.4165933771 4.6705605439 0.6770361858
346 1 71.4614036814 7.0058388236 0.6664949863
347 1 66.0648714932 7.0058388236 -0.2762358822
348 1 70.109700232 4.6705605439 -0.2816698738
349 1 72.8028072846 4.6705605439 -1.2403189033
350 1 76.8476183798 7.0058388236 -1.2506434467
351 1 75.5062328885 4.6705605439 0.6611922201
352 1 79.5510443788 7.0058388236 0.6509784494
353 1 74.1545109214 7.0058388236 -0.2921035774
354 1 78.1993403572 4.6705605439 -0.2973420522
355 1 80.892448034 4.6705605439 -1.2558186703
356 1 84.9372603463 7.0058388236 -1.2658061516
357 1 83.595874262 4.6705605439 0.6458654054
358 1 87.6406909539 7.0058388236 0.6359933471
359 1 82.2441522533 7.0058388236 -0.3074434585
360 1 86.2889823653 4.6705605439 -0.3124955504
361 1 88.9820946403 4.6705605439 -1.2707985919
362 1 93.026908201 7.0058388236 -1.2804354247
363 1 91.6855214925 4.6705605439 0.6310591644
364 1 95.73033549 7.0058388236 0.6215420198
365 1 90.3337994735 7.0058388236 -0.3222507087
366 1 94.37863022 4.6705605439 -0.3271281213
367 1 97.0717391453 4.6705605439 -1.2852577111
368 1 101.116554027 7.0058388236 -1.2945316924
369 1 99.775166632 4.6705605439 0.6167731224
370 1 103.8199819507 7.0058388236 0.607622512
371 1 98.4234446441 7.0058388236 -0.3365243085
372 1 102.4682759733 4.6705605439 -0.3412416375
373 1 105.1613855226 4.6705605439 -1.2991993984
374 1 109.2062017465 7.0058388236 -1.3081001251
375 1 107.8648136129 4.6705605439 0.6030023484
376 1 111.9096342684 7.0058388236 0.5942279783
377 1 106.5130917497 7.0058388236 -0.3502678053
378 1 110.5579235783 4.6705605439 -0.3548426008
379 1 113.251037705 4.6705605439 -1.312631862
380 1 117.2958553022 7.0058388236 -1.3211511988
381 1 115.954466409 4.6705605439 0.5897368867
382 1 119.9992844638 7.0058388236 0.5813460078
383 1 114.6027446813 7.0058388236 -0.3634898132
384 1 118.6475769571 4.6705605439 -0.3679427982
385 1 121.3406877029 4.6705605439 -1.3255687403
386 1 125.3855067043 7.0058388236 -1.3337012984
387 1 124.0441169893 4.6705605439 0.5769611635
388 1 128.0889364486 7.0058388236 0.5689581869
389 1 122.69239548 7.0058388236 -0.3762047091
390 1 126.7372281096 4.6705605439 -0.3805597796
391 1 129.4303394172 4.6705605439 -1.3380295912
392 1 133.4751598229 7.0058388236 -1.3457731653
393 1 132.133769255 4.6705605439 0.5646535613
394 1 136.1785901291 7.0058388236 0.5570395273
395 1 130.7820480473 7.0058388236 -0.3884330288
396 1 134.8268809266 4.6705605439 -0.3927172228
397 1 137.5199967387 4.6705605439 -1.3500402563
398 1 141.5648185283 7.0058388236 -1.3573962506
399 1 140.2234270863 4.6705605439 0.5527860957
400 1 144.268249344 7.0058388236 0.5455582993
401 1 138.871706222 7.0058388236 -0.4002020288
402 1 142.9165392573 4.6705605439 -0.4044453383
403 1 145.6096515844 4.6705605439 -1.3616330893
404 1 149.6544747678 7.0058388236 -1.3686069031
405 1 148.3130824106 4.6705605439 0.5413242174
406 1 152.3579060414 7.0058388236 0.5344758553
407 1 146.9613619727 7.0058388236 -0.4115456856
408 1 151.0061950289 4.6705605439 -0.4157808285
409 1 153.6993078032 4.6705605439 -1.372846998
410 1 157.7441323287 7.0058388236 -1.3794483166
411 1 156.4027390454 4.6705605439 0.5302268345
412 1 160.4475640079 7.0058388236 0.5237467854
413 1 155.0510191175 7.0058388236 -0.4225049563
414 1 159.0958520695 4.6705605439 -0.426766929
415 1 161.7889691924 4.6705605439 -1.3837273193
416 1 165.8337949975 7.0058388236 -1.3899702493
417 1 164.4924007988 4.6705605439 0.5194465915
418 1 168.53722702 7.0058388236 0.5133192196
419 1 163.1406814221 7.0058388236 -0.4331274667
420 1 167.1855141661 4.6705605439 -0.4374530027
421 1 169.878627627 4.6705605439 -1.3943253407
422 1 173.9234546702 7.0058388236 -1.4002284623
423 1 172.5820595248 4.6705605439 0.5089303285
424 1 176.6268869632 7.0058388236 0.5031355869
425 1 171.2303407931 7.0058388236 -0.4434670531
426 1 175.2751731626 4.6705605439 -0.4478940094
427 1 177.9682868732 4.6705605439 -1.4046977178
428 1 182.0131150606 7.0058388236 -1.4102839594
429 1 180.6717189997 4.6705605439 0.4986197876
430 1 184.7165475514 7.0058388236 0.4931333642
431 1 179.3200009859 7.0058388236 -0.4535830654
432 1 183.3648328353 4.6705605439 -0.4581496528
433 1 186.0579506968 4.6705605439 -1.4149055275
434 1 190.1027799246 7.0058388236 -1.4202018645
435 1 188.761382969 4.6705605439 0.4884526335
436 1 192.8062125089 7.0058388236 0.4832462837
437 1 187.4096656937 7.0058388236 -0.4635393997
438 1 191.4544969189 4.6705605439 -0.4682833919
439 1 194.1476109 4.6705605439 -1.4250132068
440 1 198.1924410745 7.0058388236 -1.4300502453
441 1 196.8510432346 4.6705605439 0.4783636175
442 1 200.89587369 7.0058388236 0.473405674
443 1 195.4993267812 7.0058388236 -0.4734032812
444 1 199.5441572365 4.6705605439 -0.4783612039
445 1 202.2372712281 4.6705605439 -1.4350872735
446 1 206.282102214 7.0058388236 -1.4398986263
447 1 204.9407035524 4.6705605439 0.4682858055
448 1 208.9855347775 7.0058388236 0.4635418028
449 1 203.5889879624 7.0058388236 -0.483243891
450 1 207.6338175126 4.6705605439 -0.48845022
451 1 210.3269314314 4.6705605439 -1.4451949425
452 1 214.3717670674 7.0058388236 -1.4498165313
453 1 213.0303676359 4.6705605439 0.4581520766
454 1 217.0751994957 7.0058388236 0.4535854789
455 1 211.6786529302 7.0058388236 -0.4931309611
456 1 215.7234814714 4.6705605439 -0.4986173533
457 1 218.4165952549 4.6705605439 -1.4554027418
458 1 222.4614274579 7.0058388236 -1.4598720077
459 1 221.1200273086 4.6705605439 0.4478964541
460 1 225.1648596781 7.0058388236 0.4434694874
461 1 219.768313508 7.0058388236 -0.5031331629
462 1 223.8131409465 4.6705605439 -0.5089278733
463 1 226.506254501 4.6705605439 -1.4657750877
464 1 230.5510871306 7.0058388236 -1.4701301998
465 1 229.2096863155 4.6705605439 0.4374554682
466 1 233.2545190491 7.0058388236 0.4331299323
467 1 227.8579734512 7.0058388236 -0.5133167853
468 1 231.9027996828 4.6705605439 -0.5194441155
469 1 234.5959129461 4.6705605439 -1.4763730882
470 1 238.6407498098 7.0058388236 -1.4806521013
471 1 237.2993484017 4.6705605439 0.4267694154
472 1 241.3441813643 7.0058388236 0.422507453
473 1 235.9476364737 7.0058388236 -0.5237443095
474 1 239.9924614362 4.6705605439 -0.5302243377
475 1 242.6855743354 4.6705605439 -1.4872533783
476 1 246.7304073706 7.0058388236 -1.4914934837
477 1 245.3890054424 4.6705605439 0.4157833565
478 1 249.433838509 7.0058388236 0.4115482136
479 1 244.0372944298 7.0058388236 -0.5344733585
480 1 248.0821180712 4.6705605439 -0.5413216687
481 1 250.7752305437 4.6705605439 -1.4984672558
482 1 254.8200635999 7.0058388236 -1.5027040945
483 1 253.4786612139 4.6705605439 0.4044479079
484 1 257.5234942493 7.0058388236 0.400204588
485 1 252.1269511376 7.0058388236 -0.5455557506
486 1 256.1717733848 4.6705605439 -0.5527835156
487 1 258.8648853998 4.6705605439 -1.5100600471
488 1 262.909722305 7.0058388236 -1.5143271278
489 1 261.568319555 4.6705605439 0.3927198339
490 1 265.6131524239 7.0058388236 0.3884356505
491 1 260.2166103526 7.0058388236 -0.5570369474
492 1 264.2614312162 4.6705605439 -0.5646509398
493 1 266.9545427109 4.6705605439 -1.5220706603
494 1 270.9993754238 7.0058388236 -1.5263989426
495 1 269.6579723616 4.6705605439 0.3805624324
496 1 273.7028049911 7.0058388236 0.3762073618
497 1 268.3062640226 7.0058388236 -0.568955555
498 1 272.3510834923 4.6705605439 -0.5769584795
499 1 275.0441944253 4.6705605439 -1.5345314696
500 1 279.0890268364 7.0058388236 -1.5389489798
501 1 277.7476235141 4.6705605439 0.3679455029
502 1 281.79245579 7.0058388236 0.3634925284
503 1 276.3959160074 7.0058388236 -0.5813433342
504 1 280.4407340726 4.6705605439 -0.589734161
505 1 283.133844423 4.6705605439 -1.5474682958
506 1 287.1786803816 7.0058388236 -1.5520000223
507 1 285.8372769033 4.6705605439 0.3548453473
508 1 289.8821087214 7.0058388236 0.3502705726
509 1 284.4855662133 7.0058388236 -0.5942252423
510 1 288.5303868584 4.6705605439 -0.6029995812
511 1 291.2234966158 4.6705605439 -1.5609007074
512 1 295.268328101 7.0058388236 -1.565568403
513 1 293.9269245083 4.6705605439 0.3412444359
514 1 297.9717558271 7.0058388236 0.3365271277
515 1 292.5752185204 7.0058388236 -0.607619724
516 1 296.6200338496 4.6705605439 -0.6167703031
517 1 299.3131429828 4.6705605439 -1.5748423427
518 1 303.3579739271 7.0058388236 -1.5796646083
519 1 302.0165702616 4.6705605439 0.3271309925
520 1 306.0614009978 7.0058388236 0.3222535799
521 1 300.6648649811 7.0058388236 -0.6215391798
522 1 304.7096789787 4.6705605439 -0.6310562931
523 1 307.4027874982 4.6705605439 -1.5893014098
524 1 311.4476217818 7.0058388236 -1.5942938293
525 1 310.1062181163 4.6705605439 0.3124984633
526 1 314.1510482179 7.0058388236 0.3074463818
527 1 308.7545095172 7.0058388236 -0.6359904445
528 1 312.7993262092 4.6705605439 -0.6458624718
529 1 315.4924340941 4.6705605439 -1.6042812795
530 1 319.5372637588 7.0058388236 -1.6094564719
531 1 318.195860114 4.6705605439 0.2973450171
532 1 322.2406895602 7.0058388236 0.2921065632
533 1 316.8441560924 7.0058388236 -0.6509755054
534 1 320.8889675828 4.6705605439 -0.6611892343
535 1 323.5820748538 4.6705605439 -1.6197809841
536 1 327.6269038216 7.0058388236 -1.6251489157
537 1 326.2855002496 4.6705605439 0.2816728907
538 1 330.3303289884 7.0058388236 0.2762389303
539 1 324.9337968001 7.0058388236 -0.6664919798
540 1 328.9786070941 4.6705605439 -0.677033148
541 1 331.671713741 4.6705605439 -1.6357959151
542 1 335.7165459544 7.0058388236 -1.6413640969
543 1 334.3751385229 4.6705605439 0.2654877953
544 1 338.4199704971 7.0058388236 0.2598516082
545 1 333.0234355937 7.0058388236 -0.6825338758
546 1 337.0682487381 4.6705605439 -0.6933874298
547 1 339.7613547817 4.6705605439 -1.6523183325
548 1 343.8061822825 7.0058388236 -1.6580920181
549 1 342.4647789603 4.6705605439 0.2487983969
550 1 346.5096062114 7.0058388236 0.242955364
551 1 341.1130764887 7.0058388236 -0.6990921529
552 1 345.1578846085 4.6705605439 -0.7102425816
553 1 347.8509900486 4.6705605439 -1.6693379269
554 1 351.8958168108 7.0058388236 -1.6753204973
555 1 350.5544136446 4.6705605439 0.2316157333
556 1 354.5992401467 7.0058388236 0.225563108
557 1 349.2027116099 7.0058388236 -0.7161552637
558 1 353.2475186998 4.6705605439 -0.7275868894
559 1 355.9406235677 4.6705605439 -1.6868423705
560 1 359.9854535341 7.0058388236 -1.6930354487
561 1 358.6440465916 4.6705605439 0.2139526937
562 1 362.6888762979 7.0058388236 0.2076893526
563 1 357.2923449523 7.0058388236 -0.7337096944
564 1 361.337155059 4.6705605439 -0.7454069125
565 1 364.0302593652 4.6705605439 -1.7048177438
566 1 368.0750845982 7.0058388236 -1.7112214754
567 1 366.7336818376 4.6705605439 0.1958236763
568 1 370.7785068105 7.0058388236 0.1893499002
569 1 365.3819805416 7.0058388236 -0.7517404852
570 1 369.4267857798 4.6705605439 -0.763687868
571 1 372.119889545 4.6705605439 -1.7232488896
572 1 376.1647140289 7.0058388236 -1.7298622134
573 1 374.8233114764 4.6705605439 0.1772441088
574 1 378.8681357106 7.0058388236 0.1705613439
575 1 373.4716105134 7.0058388236 -0.7702315115
576 1 377.516414888 4.6705605439 -0.782414047
577 1 380.209518133 4.6705605439 -1.74211987
578 1 384.2543458315 7.0058388236 -1.748940695
579 1 382.9129395548 4.6705605439 0.1582301682
580 1 386.9577670036 7.0058388236 0.1513407968
581 1 381.5612388726 7.0058388236 -0.7891659928
582 1 385.6060464306 4.6705605439 -0.8015691271
583 1 388.2991491762 4.6705605439 -1.7614142171
584 1 392.3439721517 7.0058388236 -1.7684395473
585 1 391.0025700883 4.6705605439 0.1387984163
586 1 395.0473928348 7.0058388236 0.1317056945
587 1 389.6508696557 7.0058388236 -0.8085266599
588 1 393.6956725114 4.6705605439 -0.8211363904
589 1 -0.0039127703 9.3411171138 -1.0845651319
590 1 4.0408895862 11.6763953935 -1.0973117783
591 1 2.6995078297 9.3411171138 0.8155564323
592 1 6.744310415 11.6763953935 0.8028762204
593 1 1.347787267 11.6763953935 -0.1373510573
594 1 5.3926102321 9.3411171138 -0.1443799557
595 1 8.0857128114 9.3411171138 -1.1042706948
596 1 12.1305159064 11.6763953935 -1.1168133249
597 1 10.7891339002 9.3411171138 0.7959877645
598 1 14.8339412085 11.6763953935 0.783516292
599 1 9.4374130775 11.6763953935 -0.1569921622
600 1 13.4822407863 9.3411171138 -0.1638097207
601 1 16.1753438754 9.3411171138 -1.1235595386
602 1 20.2201477402 11.6763953935 -1.1358837025
603 1 18.878765474 9.3411171138 0.7768418392
604 1 22.9235696198 11.6763953935 0.7645938366
605 1 17.5270443807 11.6763953935 -0.1762083503
606 1 21.5718689063 9.3411171138 -0.1828106885
607 1 24.2649725259 9.3411171138 -1.1424135619
608 1 28.3097772438 11.6763953935 -1.1545041023
609 1 26.9683946654 9.3411171138 0.7581367682
610 1 31.0131996746 11.6763953935 0.7461275595
611 1 25.6166733433 11.6763953935 -0.1949808235
612 1 29.6614986387 9.3411171138 -0.2013648307
613 1 32.3546028097 9.3411171138 -1.160814809
614 1 36.3994084327 11.6763953935 -1.1726559963
615 1 35.0580255006 9.3411171138 0.7398903512
616 1 39.1028353992 11.6763953935 0.7281358741
617 1 33.7063039601 11.6763953935 -0.2132909181
618 1 37.75113402 9.3411171138 -0.2194544826
619 1 40.4442387631 9.3411171138 -1.1787458024
620 1 44.4890453329 11.6763953935 -1.1903213662
621 1 43.1476620367 9.3411171138 0.722119899
622 1 47.1924689393 11.6763953935 0.7106365385
623 1 41.7959402672 11.6763953935 -0.2311204289
624 1 45.8407671751 9.3411171138 -0.2370625831
625 1 48.5338725008 9.3411171138 -1.1961897518
626 1 52.5786801004 11.6763953935 -1.2074830676
627 1 51.2372963776 9.3411171138 0.7048418281
628 1 55.2821043309 11.6763953935 0.6936463434
629 1 49.885574421 11.6763953935 -0.2484518472
630 1 53.930402109 9.3411171138 -0.2541730698
631 1 56.623508059 9.3411171138 -1.2131310208
632 1 60.6683167301 11.6763953935 -1.2241252253
633 1 59.3269325496 9.3411171138 0.6880713579
634 1 63.3717455589 11.6763953935 0.6771805919
635 1 57.9752104265 11.6763953935 -0.2652688402
636 1 62.0200428792 9.3411171138 -0.2707712638
637 1 64.713149443 9.3411171138 -1.2295555029
638 1 68.757959248 11.6763953935 -1.2402337326
639 1 67.4165745682 9.3411171138 0.6718219295
640 1 71.4613847686 11.6763953935 0.6612527249
641 1 66.0648522994 11.6763953935 -0.2815566771
642 1 70.1096815584 9.3411171138 -0.2868443588
643 1 72.8027887671 9.3411171138 -1.2454511307
644 1 76.8475997893 11.6763953935 -1.2557967924
645 1 75.5062145373 9.3411171138 0.6561048511
646 1 79.5510259652 11.6763953935 0.6458736343
647 1 74.1544921645 11.6763953935 -0.2973026867
648 1 78.1993221724 9.3411171138 -0.3023819516
649 1 80.8924300365 9.3411171138 -1.2608083849
650 1 84.9372423071 11.6763953935 -1.2708054788
651 1 83.5958564518 9.3411171138 0.6409286116
652 1 87.640673123 11.6763953935 0.6310511123
653 1 82.244134027 11.6763953935 -0.3124969549
654 1 86.2889647528 9.3411171138 -0.3173765938
655 1 88.9820772462 9.3411171138 -1.2756210239
656 1 93.0268908173 11.6763953935 -1.2852544757
657 1 91.6855043169 9.3411171138 0.6262982774
658 1 95.7303183456 11.6763953935 0.6167891745
659 1 90.3337818609 11.6763953935 -0.3271328651
660 1 94.3786132734 9.3411171138 -0.3318244879
661 1 97.0717224482 9.3411171138 -1.2898865301
662 1 101.1165373924 11.6763953935 -1.2991426597