# LAMMPS data file written by OVITO Basic 3.3.0
70308 atoms
1 atom types
0.0 398.9869537361 xlo xhi
0.0 392.3269480528 ylo yhi
0.0 8.0896453267 zlo zhi

Masses

1 95.96  # Mo

Atoms  # atomic

1 1 0.0 0.0 0.0
2 1 0.0 2.3352790808 4.0448226634
3 1 1.9136052633 0.0 2.6965484145
4 1 1.9136052633 2.3352790808 6.7413710779
5 1 0.9568026369 2.3352790808 1.3482742489
6 1 0.9568026369 0.0 5.3930969122
7 1 2.8704079002 0.0 0.0
8 1 2.8704079002 2.3352790808 4.0448226634
9 1 4.7840171583 0.0 2.6965484145
10 1 4.7840171583 2.3352790808 6.7413710779
11 1 3.8272145214 2.3352790808 1.3482742489
12 1 3.8272145214 0.0 5.3930969122
13 1 5.7408197951 0.0 0.0
14 1 5.7408197951 2.3352790808 4.0448226634
15 1 7.6544250585 0.0 2.6965484145
16 1 7.6544250585 2.3352790808 6.7413710779
17 1 6.6976224319 2.3352790808 1.3482742489
18 1 6.6976224319 0.0 5.3930969122
19 1 8.6112276952 0.0 0.0
20 1 8.6112276952 2.3352790808 4.0448226634
21 1 10.5248369533 0.0 2.6965484145
22 1 10.5248369533 2.3352790808 6.7413710779
23 1 9.5680343165 2.3352790808 1.3482742489
24 1 9.5680343165 0.0 5.3930969122
25 1 11.4816395902 0.0 0.0
26 1 11.4816395902 2.3352790808 4.0448226634
27 1 13.3952448535 0.0 2.6965484145
28 1 13.3952448535 2.3352790808 6.7413710779
29 1 12.438442227 2.3352790808 1.3482742489
30 1 12.438442227 0.0 5.3930969122
31 1 14.3520474904 0.0 0.0
32 1 14.3520474904 2.3352790808 4.0448226634
33 1 16.2656567484 0.0 2.6965484145
34 1 16.2656567484 2.3352790808 6.7413710779
35 1 15.3088501272 2.3352790808 1.3482742489
36 1 15.3088501272 0.0 5.3930969122
37 1 17.2224593853 0.0 0.0
38 1 17.2224593853 2.3352790808 4.0448226634
39 1 19.1360646486 0.0 2.6965484145
40 1 19.1360646486 2.3352790808 6.7413710779
41 1 18.1792620118 2.3352790808 1.3482742489
42 1 18.1792620118 0.0 5.3930969122
43 1 20.0928672855 0.0 0.0
44 1 20.0928672855 2.3352790808 4.0448226634
45 1 22.0064765436 0.0 2.6965484145
46 1 22.0064765436 2.3352790808 6.7413710779
47 1 21.0496699223 2.3352790808 1.3482742489
48 1 21.0496699223 0.0 5.3930969122
49 1 22.9632791803 0.0 0.0
50 1 22.9632791803 2.3352790808 4.0448226634
51 1 24.8768844437 0.0 2.6965484145
52 1 24.8768844437 2.3352790808 6.7413710779
53 1 23.9200818069 2.3352790808 1.3482742489
54 1 23.9200818069 0.0 5.3930969122
55 1 25.8336870805 0.0 0.0
56 1 25.8336870805 2.3352790808 4.0448226634
57 1 27.7472923438 0.0 2.6965484145
58 1 27.7472923438 2.3352790808 6.7413710779
59 1 26.790489707 2.3352790808 1.3482742489
60 1 26.790489707 0.0 5.3930969122
61 1 28.7040989651 0.0 0.0
62 1 28.7040989651 2.3352790808 4.0448226634
63 1 30.6177042388 0.0 2.6965484145
64 1 30.6177042388 2.3352790808 6.7413710779
65 1 29.6609016019 2.3352790808 1.3482742489
66 1 29.6609016019 0.0 5.3930969122
67 1 31.5745068757 0.0 0.0
68 1 31.5745068757 2.3352790808 4.0448226634
69 1 33.488112139 0.0 2.6965484145
70 1 33.488112139 2.3352790808 6.7413710779
71 1 32.5313095021 2.3352790808 1.3482742489
72 1 32.5313095021 0.0 5.3930969122
73 1 34.4449187602 0.0 0.0
74 1 34.4449187602 2.3352790808 4.0448226634
75 1 36.3585240339 0.0 2.6965484145
76 1 36.3585240339 2.3352790808 6.7413710779
77 1 35.4017213971 2.3352790808 1.3482742489
78 1 35.4017213971 0.0 5.3930969122
79 1 37.3153266707 0.0 0.0
80 1 37.3153266707 2.3352790808 4.0448226634
81 1 39.228931934 0.0 2.6965484145
82 1 39.228931934 2.3352790808 6.7413710779
83 1 38.2721292973 2.3352790808 1.3482742489
84 1 38.2721292973 0.0 5.3930969122
85 1 40.1857345709 0.0 0.0
86 1 40.1857345709 2.3352790808 4.0448226634
87 1 42.099343829 0.0 2.6965484145
88 1 42.099343829 2.3352790808 6.7413710779
89 1 41.1425411921 2.3352790808 1.3482742489
90 1 41.1425411921 0.0 5.3930969122
91 1 43.0561464554 0.0 0.0
92 1 43.0561464554 2.3352790808 4.0448226634
93 1 44.9697517292 0.0 2.6965484145
94 1 44.9697517292 2.3352790808 6.7413710779
95 1 44.0129490923 2.3352790808 1.3482742489
96 1 44.0129490923 0.0 5.3930969122
97 1 45.926554366 0.0 0.0
98 1 45.926554366 2.3352790808 4.0448226634
99 1 47.8401636241 0.0 2.6965484145
100 1 47.8401636241 2.3352790808 6.7413710779
101 1 46.8833609873 2.3352790808 1.3482742489
102 1 46.8833609873 0.0 5.3930969122
103 1 48.7969662506 0.0 0.0
104 1 48.7969662506 2.3352790808 4.0448226634
105 1 50.7105715243 0.0 2.6965484145
106 1 50.7105715243 2.3352790808 6.7413710779
107 1 49.7537688874 2.3352790808 1.3482742489
108 1 49.7537688874 0.0 5.3930969122
109 1 51.6673741507 0.0 0.0
110 1 51.6673741507 2.3352790808 4.0448226634
111 1 53.5809834088 0.0 2.6965484145
112 1 53.5809834088 2.3352790808 6.7413710779
113 1 52.6241767875 2.3352790808 1.3482742489
114 1 52.6241767875 0.0 5.3930969122
115 1 54.5377860457 0.0 0.0
116 1 54.5377860457 2.3352790808 4.0448226634
117 1 56.4513913193 0.0 2.6965484145
118 1 56.4513913193 2.3352790808 6.7413710779
119 1 55.4945886825 2.3352790808 1.3482742489
120 1 55.4945886825 0.0 5.3930969122
121 1 57.4081939458 0.0 0.0
122 1 57.4081939458 2.3352790808 4.0448226634
123 1 59.3218032039 0.0 2.6965484145
124 1 59.3218032039 2.3352790808 6.7413710779
125 1 58.3649965826 2.3352790808 1.3482742489
126 1 58.3649965826 0.0 5.3930969122
127 1 60.2786058407 0.0 0.0
128 1 60.2786058407 2.3352790808 4.0448226634
129 1 62.1922111145 0.0 2.6965484145
130 1 62.1922111145 2.3352790808 6.7413710779
131 1 61.2354084776 2.3352790808 1.3482742489
132 1 61.2354084776 0.0 5.3930969122
133 1 63.1490137409 0.0 0.0
134 1 63.1490137409 2.3352790808 4.0448226634
135 1 65.0626190147 0.0 2.6965484145
136 1 65.0626190147 2.3352790808 6.7413710779
137 1 64.1058163778 2.3352790808 1.3482742489
138 1 64.1058163778 0.0 5.3930969122
139 1 66.0194256359 0.0 0.0
140 1 66.0194256359 2.3352790808 4.0448226634
141 1 67.9330308992 0.0 2.6965484145
142 1 67.9330308992 2.3352790808 6.7413710779
143 1 66.9762282727 2.3352790808 1.3482742489
144 1 66.9762282727 0.0 5.3930969122
145 1 68.8898335359 0.0 0.0
146 1 68.8898335359 2.3352790808 4.0448226634
147 1 70.8034388097 0.0 2.6965484145
148 1 70.8034388097 2.3352790808 6.7413710779
149 1 69.8466361728 2.3352790808 1.3482742489
150 1 69.8466361728 0.0 5.3930969122
151 1 71.7602454309 0.0 0.0
152 1 71.7602454309 2.3352790808 4.0448226634
153 1 73.6738506942 0.0 2.6965484145
154 1 73.6738506942 2.3352790808 6.7413710779
155 1 72.7170480678 2.3352790808 1.3482742489
156 1 72.7170480678 0.0 5.3930969122
157 1 74.6306533311 0.0 0.0
158 1 74.6306533311 2.3352790808 4.0448226634
159 1 76.5442586048 0.0 2.6965484145
160 1 76.5442586048 2.3352790808 6.7413710779
161 1 75.587455968 2.3352790808 1.3482742489
162 1 75.587455968 0.0 5.3930969122
163 1 77.5010612313 0.0 0.0
164 1 77.5010612313 2.3352790808 4.0448226634
165 1 79.4146704894 0.0 2.6965484145
166 1 79.4146704894 2.3352790808 6.7413710779
167 1 78.4578678525 2.3352790808 1.3482742489
168 1 78.4578678525 0.0 5.3930969122
169 1 80.3714731262 0.0 0.0
170 1 80.3714731262 2.3352790808 4.0448226634
171 1 82.2850783895 0.0 2.6965484145
172 1 82.2850783895 2.3352790808 6.7413710779
173 1 81.3282757631 2.3352790808 1.3482742489
174 1 81.3282757631 0.0 5.3930969122
175 1 83.2418810263 0.0 0.0
176 1 83.2418810263 2.3352790808 4.0448226634
177 1 85.1554902845 0.0 2.6965484145
178 1 85.1554902845 2.3352790808 6.7413710779
179 1 84.1986876476 2.3352790808 1.3482742489
180 1 84.1986876476 0.0 5.3930969122
181 1 86.1122929213 0.0 0.0
182 1 86.1122929213 2.3352790808 4.0448226634
183 1 88.0258981846 0.0 2.6965484145
184 1 88.0258981846 2.3352790808 6.7413710779
185 1 87.0690955581 2.3352790808 1.3482742489
186 1 87.0690955581 0.0 5.3930969122
187 1 88.9827008214 0.0 0.0
188 1 88.9827008214 2.3352790808 4.0448226634
189 1 90.8963100795 0.0 2.6965484145
190 1 90.8963100795 2.3352790808 6.7413710779
191 1 89.9395034583 2.3352790808 1.3482742489
192 1 89.9395034583 0.0 5.3930969122
193 1 91.8531127164 0.0 0.0
194 1 91.8531127164 2.3352790808 4.0448226634
195 1 93.7667179797 0.0 2.6965484145
196 1 93.7667179797 2.3352790808 6.7413710779
197 1 92.8099153428 2.3352790808 1.3482742489
198 1 92.8099153428 0.0 5.3930969122
199 1 94.7235206166 0.0 0.0
200 1 94.7235206166 2.3352790808 4.0448226634
201 1 96.6371298747 0.0 2.6965484145
202 1 96.6371298747 2.3352790808 6.7413710779
203 1 95.6803232533 2.3352790808 1.3482742489
204 1 95.6803232533 0.0 5.3930969122
205 1 97.5939325116 0.0 0.0
206 1 97.5939325116 2.3352790808 4.0448226634
207 1 99.5075377747 0.0 2.6965484145
208 1 99.5075377747 2.3352790808 6.7413710779
209 1 98.550735138 2.3352790808 1.3482742489
210 1 98.550735138 0.0 5.3930969122
211 1 100.4643404116 0.0 0.0
212 1 100.4643404116 2.3352790808 4.0448226634
213 1 102.3779456749 0.0 2.6965484145
214 1 102.3779456749 2.3352790808 6.7413710779
215 1 101.4211430485 2.3352790808 1.3482742489
216 1 101.4211430485 0.0 5.3930969122
217 1 103.3347523066 0.0 0.0
218 1 103.3347523066 2.3352790808 4.0448226634
219 1 105.2483575699 0.0 2.6965484145
220 1 105.2483575699 2.3352790808 6.7413710779
221 1 104.291554933 2.3352790808 1.3482742489
222 1 104.291554933 0.0 5.3930969122
223 1 106.2051602068 0.0 0.0
224 1 106.2051602068 2.3352790808 4.0448226634
225 1 108.1187654701 0.0 2.6965484145
226 1 108.1187654701 2.3352790808 6.7413710779
227 1 107.1619628332 2.3352790808 1.3482742489
228 1 107.1619628332 0.0 5.3930969122
229 1 109.0755681069 0.0 0.0
230 1 109.0755681069 2.3352790808 4.0448226634
231 1 110.989177365 0.0 2.6965484145
232 1 110.989177365 2.3352790808 6.7413710779
233 1 110.0323747282 2.3352790808 1.3482742489
234 1 110.0323747282 0.0 5.3930969122
235 1 111.9459800019 0.0 0.0
236 1 111.9459800019 2.3352790808 4.0448226634
237 1 113.8595852651 0.0 2.6965484145
238 1 113.8595852651 2.3352790808 6.7413710779
239 1 112.9027826283 2.3352790808 1.3482742489
240 1 112.9027826283 0.0 5.3930969122
241 1 114.816387902 0.0 0.0
242 1 114.816387902 2.3352790808 4.0448226634
243 1 116.7299971601 0.0 2.6965484145
244 1 116.7299971601 2.3352790808 6.7413710779
245 1 115.7731945233 2.3352790808 1.3482742489
246 1 115.7731945233 0.0 5.3930969122
247 1 117.6867997865 0.0 0.0
248 1 117.6867997865 2.3352790808 4.0448226634
249 1 119.6004050602 0.0 2.6965484145
250 1 119.6004050602 2.3352790808 6.7413710779
251 1 118.6436024234 2.3352790808 1.3482742489
252 1 118.6436024234 0.0 5.3930969122
253 1 120.5572076971 0.0 0.0
254 1 120.5572076971 2.3352790808 4.0448226634
255 1 122.4708169552 0.0 2.6965484145
256 1 122.4708169552 2.3352790808 6.7413710779
257 1 121.5140103236 2.3352790808 1.3482742489
258 1 121.5140103236 0.0 5.3930969122
259 1 123.4276195816 0.0 0.0
260 1 123.4276195816 2.3352790808 4.0448226634
261 1 125.3412248554 0.0 2.6965484145
262 1 125.3412248554 2.3352790808 6.7413710779
263 1 124.3844222185 2.3352790808 1.3482742489
264 1 124.3844222185 0.0 5.3930969122
265 1 126.2980274921 0.0 0.0
266 1 126.2980274921 2.3352790808 4.0448226634
267 1 128.2116367504 0.0 2.6965484145
268 1 128.2116367504 2.3352790808 6.7413710779
269 1 127.2548301187 2.3352790808 1.3482742489
270 1 127.2548301187 0.0 5.3930969122
271 1 129.1684393768 0.0 0.0
272 1 129.1684393768 2.3352790808 4.0448226634
273 1 131.0820446504 0.0 2.6965484145
274 1 131.0820446504 2.3352790808 6.7413710779
275 1 130.1252420135 2.3352790808 1.3482742489
276 1 130.1252420135 0.0 5.3930969122
277 1 132.0388472769 0.0 0.0
278 1 132.0388472769 2.3352790808 4.0448226634
279 1 133.9524525506 0.0 2.6965484145
280 1 133.9524525506 2.3352790808 6.7413710779
281 1 132.9956499137 2.3352790808 1.3482742489
282 1 132.9956499137 0.0 5.3930969122
283 1 134.9092591718 0.0 0.0
284 1 134.9092591718 2.3352790808 4.0448226634
285 1 136.8228644456 0.0 2.6965484145
286 1 136.8228644456 2.3352790808 6.7413710779
287 1 135.8660618087 2.3352790808 1.3482742489
288 1 135.8660618087 0.0 5.3930969122
289 1 137.779667072 0.0 0.0
290 1 137.779667072 2.3352790808 4.0448226634
291 1 139.6932723457 0.0 2.6965484145
292 1 139.6932723457 2.3352790808 6.7413710779
293 1 138.7364697089 2.3352790808 1.3482742489
294 1 138.7364697089 0.0 5.3930969122
295 1 140.650078967 0.0 0.0
296 1 140.650078967 2.3352790808 4.0448226634
297 1 142.5636842303 0.0 2.6965484145
298 1 142.5636842303 2.3352790808 6.7413710779
299 1 141.6068816038 2.3352790808 1.3482742489
300 1 141.6068816038 0.0 5.3930969122
301 1 143.5204868671 0.0 0.0
302 1 143.5204868671 2.3352790808 4.0448226634
303 1 145.4340921408 0.0 2.6965484145
304 1 145.4340921408 2.3352790808 6.7413710779
305 1 144.4772895039 2.3352790808 1.3482742489
306 1 144.4772895039 0.0 5.3930969122
307 1 146.3908947672 0.0 0.0
308 1 146.3908947672 2.3352790808 4.0448226634
309 1 148.3045040253 0.0 2.6965484145
310 1 148.3045040253 2.3352790808 6.7413710779
311 1 147.3477013989 2.3352790808 1.3482742489
312 1 147.3477013989 0.0 5.3930969122
313 1 149.2613066622 0.0 0.0
314 1 149.2613066622 2.3352790808 4.0448226634
315 1 151.1749119359 0.0 2.6965484145
316 1 151.1749119359 2.3352790808 6.7413710779
317 1 150.218109299 2.3352790808 1.3482742489
318 1 150.218109299 0.0 5.3930969122
319 1 152.1317145624 0.0 0.0
320 1 152.1317145624 2.3352790808 4.0448226634
321 1 154.0453238205 0.0 2.6965484145
322 1 154.0453238205 2.3352790808 6.7413710779
323 1 153.088521194 2.3352790808 1.3482742489
324 1 153.088521194 0.0 5.3930969122
325 1 155.0021264573 0.0 0.0
326 1 155.0021264573 2.3352790808 4.0448226634
327 1 156.9157317206 0.0 2.6965484145
328 1 156.9157317206 2.3352790808 6.7413710779
329 1 155.9589290942 2.3352790808 1.3482742489
330 1 155.9589290942 0.0 5.3930969122
331 1 157.8725343575 0.0 0.0
332 1 157.8725343575 2.3352790808 4.0448226634
333 1 159.7861436156 0.0 2.6965484145
334 1 159.7861436156 2.3352790808 6.7413710779
335 1 158.8293369943 2.3352790808 1.3482742489
336 1 158.8293369943 0.0 5.3930969122
337 1 160.7429462524 0.0 0.0
338 1 160.7429462524 2.3352790808 4.0448226634
339 1 162.6565515157 0.0 2.6965484145
340 1 162.6565515157 2.3352790808 6.7413710779
341 1 161.6997488892 2.3352790808 1.3482742489
342 1 161.6997488892 0.0 5.3930969122
343 1 163.6133541525 0.0 0.0
344 1 163.6133541525 2.3352790808 4.0448226634
345 1 165.5269634106 0.0 2.6965484145
346 1 165.5269634106 2.3352790808 6.7413710779
347 1 164.5701567894 2.3352790808 1.3482742489
348 1 164.5701567894 0.0 5.3930969122
349 1 166.4837660475 0.0 0.0
350 1 166.4837660475 2.3352790808 4.0448226634
351 1 168.3973713108 0.0 2.6965484145
352 1 168.3973713108 2.3352790808 6.7413710779
353 1 167.4405686844 2.3352790808 1.3482742489
354 1 167.4405686844 0.0 5.3930969122
355 1 169.3541739477 0.0 0.0
356 1 169.3541739477 2.3352790808 4.0448226634
357 1 171.267779211 0.0 2.6965484145
358 1 171.267779211 2.3352790808 6.7413710779
359 1 170.3109765845 2.3352790808 1.3482742489
360 1 170.3109765845 0.0 5.3930969122
361 1 172.2245858426 0.0 0.0
362 1 172.2245858426 2.3352790808 4.0448226634
363 1 174.1381911059 0.0 2.6965484145
364 1 174.1381911059 2.3352790808 6.7413710779
365 1 173.1813884691 2.3352790808 1.3482742489
366 1 173.1813884691 0.0 5.3930969122
367 1 175.0949937427 0.0 0.0
368 1 175.0949937427 2.3352790808 4.0448226634
369 1 177.008599006 0.0 2.6965484145
370 1 177.008599006 2.3352790808 6.7413710779
371 1 176.0517963796 2.3352790808 1.3482742489
372 1 176.0517963796 0.0 5.3930969122
373 1 177.9654056377 0.0 0.0
374 1 177.9654056377 2.3352790808 4.0448226634
375 1 179.879010901 0.0 2.6965484145
376 1 179.879010901 2.3352790808 6.7413710779
377 1 178.9222082641 2.3352790808 1.3482742489
378 1 178.9222082641 0.0 5.3930969122
379 1 180.8358135379 0.0 0.0
380 1 180.8358135379 2.3352790808 4.0448226634
381 1 182.7494188012 0.0 2.6965484145
382 1 182.7494188012 2.3352790808 6.7413710779
383 1 181.7926161643 2.3352790808 1.3482742489
384 1 181.7926161643 0.0 5.3930969122
385 1 183.706221438 0.0 0.0
386 1 183.706221438 2.3352790808 4.0448226634
387 1 185.6198306961 0.0 2.6965484145
388 1 185.6198306961 2.3352790808 6.7413710779
389 1 184.6630280593 2.3352790808 1.3482742489
390 1 184.6630280593 0.0 5.3930969122
391 1 186.576633333 0.0 0.0
392 1 186.576633333 2.3352790808 4.0448226634
393 1 188.4902385963 0.0 2.6965484145
394 1 188.4902385963 2.3352790808 6.7413710779
395 1 187.5334359594 2.3352790808 1.3482742489
396 1 187.5334359594 0.0 5.3930969122
397 1 189.4470412331 0.0 0.0
398 1 189.4470412331 2.3352790808 4.0448226634
399 1 191.3606504912 0.0 2.6965484145
400 1 191.3606504912 2.3352790808 6.7413710779
401 1 190.4038478544 2.3352790808 1.3482742489
402 1 190.4038478544 0.0 5.3930969122
403 1 192.317453128 0.0 0.0
404 1 192.317453128 2.3352790808 4.0448226634
405 1 194.2310583913 0.0 2.6965484145
406 1 194.2310583913 2.3352790808 6.7413710779
407 1 193.2742557545 2.3352790808 1.3482742489
408 1 193.2742557545 0.0 5.3930969122
409 1 195.1878610282 0.0 0.0
410 1 195.1878610282 2.3352790808 4.0448226634
411 1 197.1014702863 0.0 2.6965484145
412 1 197.1014702863 2.3352790808 6.7413710779
413 1 196.1446636546 2.3352790808 1.3482742489
414 1 196.1446636546 0.0 5.3930969122
415 1 198.0582729127 0.0 0.0
416 1 198.0582729127 2.3352790808 4.0448226634
417 1 199.9718781865 0.0 2.6965484145
418 1 199.9718781865 2.3352790808 6.7413710779
419 1 199.0150755496 2.3352790808 1.3482742489
420 1 199.0150755496 0.0 5.3930969122
421 1 200.9286808233 0.0 0.0
422 1 200.9286808233 2.3352790808 4.0448226634
423 1 202.8422900814 0.0 2.6965484145
424 1 202.8422900814 2.3352790808 6.7413710779
425 1 201.8854834498 2.3352790808 1.3482742489
426 1 201.8854834498 0.0 5.3930969122
427 1 203.7990927079 0.0 0.0
428 1 203.7990927079 2.3352790808 4.0448226634
429 1 205.7126979815 0.0 2.6965484145
430 1 205.7126979815 2.3352790808 6.7413710779
431 1 204.7558953448 2.3352790808 1.3482742489
432 1 204.7558953448 0.0 5.3930969122
433 1 206.6695006079 0.0 0.0
434 1 206.6695006079 2.3352790808 4.0448226634
435 1 208.5831058817 0.0 2.6965484145
436 1 208.5831058817 2.3352790808 6.7413710779
437 1 207.6263032448 2.3352790808 1.3482742489
438 1 207.6263032448 0.0 5.3930969122
439 1 209.5399125029 0.0 0.0
440 1 209.5399125029 2.3352790808 4.0448226634
441 1 211.4535177767 0.0 2.6965484145
442 1 211.4535177767 2.3352790808 6.7413710779
443 1 210.4967151398 2.3352790808 1.3482742489
444 1 210.4967151398 0.0 5.3930969122
445 1 212.4103204031 0.0 0.0
446 1 212.4103204031 2.3352790808 4.0448226634
447 1 214.3239256768 0.0 2.6965484145
448 1 214.3239256768 2.3352790808 6.7413710779
449 1 213.36712304 2.3352790808 1.3482742489
450 1 213.36712304 0.0 5.3930969122
451 1 215.2807322981 0.0 0.0
452 1 215.2807322981 2.3352790808 4.0448226634
453 1 217.1943375718 0.0 2.6965484145
454 1 217.1943375718 2.3352790808 6.7413710779
455 1 216.2375349349 2.3352790808 1.3482742489
456 1 216.2375349349 0.0 5.3930969122
457 1 218.1511401982 0.0 0.0
458 1 218.1511401982 2.3352790808 4.0448226634
459 1 220.0647454719 0.0 2.6965484145
460 1 220.0647454719 2.3352790808 6.7413710779
461 1 219.1079428351 2.3352790808 1.3482742489
462 1 219.1079428351 0.0 5.3930969122
463 1 221.0215480983 0.0 0.0
464 1 221.0215480983 2.3352790808 4.0448226634
465 1 222.9351573565 0.0 2.6965484145
466 1 222.9351573565 2.3352790808 6.7413710779
467 1 221.97835473 2.3352790808 1.3482742489
468 1 221.97835473 0.0 5.3930969122
469 1 223.8919599933 0.0 0.0
470 1 223.8919599933 2.3352790808 4.0448226634
471 1 225.805565267 0.0 2.6965484145
472 1 225.805565267 2.3352790808 6.7413710779
473 1 224.8487626301 2.3352790808 1.3482742489
474 1 224.8487626301 0.0 5.3930969122
475 1 226.7623678934 0.0 0.0
476 1 226.7623678934 2.3352790808 4.0448226634
477 1 228.6759771515 0.0 2.6965484145
478 1 228.6759771515 2.3352790808 6.7413710779
479 1 227.7191745251 2.3352790808 1.3482742489
480 1 227.7191745251 0.0 5.3930969122
481 1 229.6327797884 0.0 0.0
482 1 229.6327797884 2.3352790808 4.0448226634
483 1 231.5463850517 0.0 2.6965484145
484 1 231.5463850517 2.3352790808 6.7413710779
485 1 230.5895824253 2.3352790808 1.3482742489
486 1 230.5895824253 0.0 5.3930969122
487 1 232.5031876886 0.0 0.0
488 1 232.5031876886 2.3352790808 4.0448226634
489 1 234.4167969467 0.0 2.6965484145
490 1 234.4167969467 2.3352790808 6.7413710779
491 1 233.4599903253 2.3352790808 1.3482742489
492 1 233.4599903253 0.0 5.3930969122
493 1 235.3735995836 0.0 0.0
494 1 235.3735995836 2.3352790808 4.0448226634
495 1 237.2872048467 0.0 2.6965484145
496 1 237.2872048467 2.3352790808 6.7413710779
497 1 236.3304022203 2.3352790808 1.3482742489
498 1 236.3304022203 0.0 5.3930969122
499 1 238.2440074836 0.0 0.0
500 1 238.2440074836 2.3352790808 4.0448226634
501 1 240.1576167417 0.0 2.6965484145
502 1 240.1576167417 2.3352790808 6.7413710779
503 1 239.2008101205 2.3352790808 1.3482742489
504 1 239.2008101205 0.0 5.3930969122
505 1 241.1144193786 0.0 0.0
506 1 241.1144193786 2.3352790808 4.0448226634
507 1 243.0280246419 0.0 2.6965484145
508 1 243.0280246419 2.3352790808 6.7413710779
509 1 242.0712220155 2.3352790808 1.3482742489
510 1 242.0712220155 0.0 5.3930969122
511 1 243.9848272788 0.0 0.0
512 1 243.9848272788 2.3352790808 4.0448226634
513 1 245.8984325421 0.0 2.6965484145
514 1 245.8984325421 2.3352790808 6.7413710779
515 1 244.9416299156 2.3352790808 1.3482742489
516 1 244.9416299156 0.0 5.3930969122
517 1 246.8552391737 0.0 0.0
518 1 246.8552391737 2.3352790808 4.0448226634
519 1 248.768844437 0.0 2.6965484145
520 1 248.768844437 2.3352790808 6.7413710779
521 1 247.8120418002 2.3352790808 1.3482742489
522 1 247.8120418002 0.0 5.3930969122
523 1 249.7256470739 0.0 0.0
524 1 249.7256470739 2.3352790808 4.0448226634
525 1 251.6392523371 0.0 2.6965484145
526 1 251.6392523371 2.3352790808 6.7413710779
527 1 250.6824497107 2.3352790808 1.3482742489
528 1 250.6824497107 0.0 5.3930969122
529 1 252.5960589688 0.0 0.0
530 1 252.5960589688 2.3352790808 4.0448226634
531 1 254.5096642321 0.0 2.6965484145
532 1 254.5096642321 2.3352790808 6.7413710779
533 1 253.5528615953 2.3352790808 1.3482742489
534 1 253.5528615953 0.0 5.3930969122
535 1 255.4664668689 0.0 0.0
536 1 255.4664668689 2.3352790808 4.0448226634
537 1 257.3800721322 0.0 2.6965484145
538 1 257.3800721322 2.3352790808 6.7413710779
539 1 256.4232695058 2.3352790808 1.3482742489
540 1 256.4232695058 0.0 5.3930969122
541 1 258.3368747691 0.0 0.0
542 1 258.3368747691 2.3352790808 4.0448226634
543 1 260.2504840272 0.0 2.6965484145
544 1 260.2504840272 2.3352790808 6.7413710779
545 1 259.2936813903 2.3352790808 1.3482742489
546 1 259.2936813903 0.0 5.3930969122
547 1 261.2072866641 0.0 0.0
548 1 261.2072866641 2.3352790808 4.0448226634
549 1 263.1208919274 0.0 2.6965484145
550 1 263.1208919274 2.3352790808 6.7413710779
551 1 262.1640892905 2.3352790808 1.3482742489
552 1 262.1640892905 0.0 5.3930969122
553 1 264.0776945641 0.0 0.0
554 1 264.0776945641 2.3352790808 4.0448226634
555 1 265.9913038224 0.0 2.6965484145
556 1 265.9913038224 2.3352790808 6.7413710779
557 1 265.0345011855 2.3352790808 1.3482742489
558 1 265.0345011855 0.0 5.3930969122
559 1 266.9481064591 0.0 0.0
560 1 266.9481064591 2.3352790808 4.0448226634
561 1 268.8617117224 0.0 2.6965484145
562 1 268.8617117224 2.3352790808 6.7413710779
563 1 267.9049090856 2.3352790808 1.3482742489
564 1 267.9049090856 0.0 5.3930969122
565 1 269.8185143593 0.0 0.0
566 1 269.8185143593 2.3352790808 4.0448226634
567 1 271.7321236174 0.0 2.6965484145
568 1 271.7321236174 2.3352790808 6.7413710779
569 1 270.7753169857 2.3352790808 1.3482742489
570 1 270.7753169857 0.0 5.3930969122
571 1 272.6889262438 0.0 0.0
572 1 272.6889262438 2.3352790808 4.0448226634
573 1 274.6025315176 0.0 2.6965484145
574 1 274.6025315176 2.3352790808 6.7413710779
575 1 273.6457288807 2.3352790808 1.3482742489
576 1 273.6457288807 0.0 5.3930969122
577 1 275.5593341544 0.0 0.0
578 1 275.5593341544 2.3352790808 4.0448226634
579 1 277.4729434125 0.0 2.6965484145
580 1 277.4729434125 2.3352790808 6.7413710779
581 1 276.5161367809 2.3352790808 1.3482742489
582 1 276.5161367809 0.0 5.3930969122
583 1 278.429746039 0.0 0.0
584 1 278.429746039 2.3352790808 4.0448226634
585 1 280.3433513127 0.0 2.6965484145
586 1 280.3433513127 2.3352790808 6.7413710779
587 1 279.3865486758 2.3352790808 1.3482742489
588 1 279.3865486758 0.0 5.3930969122
589 1 281.3001539495 0.0 0.0
590 1 281.3001539495 2.3352790808 4.0448226634
591 1 283.2137592128 0.0 2.6965484145
592 1 283.2137592128 2.3352790808 6.7413710779
593 1 282.2569565759 2.3352790808 1.3482742489
594 1 282.2569565759 0.0 5.3930969122
595 1 284.1705658341 0.0 0.0
596 1 284.1705658341 2.3352790808 4.0448226634
597 1 286.0841711077 0.0 2.6965484145
598 1 286.0841711077 2.3352790808 6.7413710779
599 1 285.1273684709 2.3352790808 1.3482742489
600 1 285.1273684709 0.0 5.3930969122
601 1 287.0409737342 0.0 0.0
602 1 287.0409737342 2.3352790808 4.0448226634
603 1 288.9545790079 0.0 2.6965484145
604 1 288.9545790079 2.3352790808 6.7413710779
605 1 287.9977763711 2.3352790808 1.3482742489
606 1 287.9977763711 0.0 5.3930969122
607 1 289.9113856291 0.0 0.0
608 1 289.9113856291 2.3352790808 4.0448226634
609 1 291.8249909029 0.0 2.6965484145
610 1 291.8249909029 2.3352790808 6.7413710779
611 1 290.868188266 2.3352790808 1.3482742489
612 1 290.868188266 0.0 5.3930969122
613 1 292.7817935293 0.0 0.0
614 1 292.7817935293 2.3352790808 4.0448226634
615 1 294.695398803 0.0 2.6965484145
616 1 294.695398803 2.3352790808 6.7413710779
617 1 293.7385961662 2.3352790808 1.3482742489
618 1 293.7385961662 0.0 5.3930969122
619 1 295.6522014295 0.0 0.0
620 1 295.6522014295 2.3352790808 4.0448226634
621 1 297.5658106876 0.0 2.6965484145
622 1 297.5658106876 2.3352790808 6.7413710779
623 1 296.6090080612 2.3352790808 1.3482742489
624 1 296.6090080612 0.0 5.3930969122
625 1 298.5226133244 0.0 0.0
626 1 298.5226133244 2.3352790808 4.0448226634
627 1 300.4362185981 0.0 2.6965484145
628 1 300.4362185981 2.3352790808 6.7413710779
629 1 299.4794159612 2.3352790808 1.3482742489
630 1 299.4794159612 0.0 5.3930969122
631 1 301.3930212245 0.0 0.0
632 1 301.3930212245 2.3352790808 4.0448226634
633 1 303.3066304826 0.0 2.6965484145
634 1 303.3066304826 2.3352790808 6.7413710779
635 1 302.3498238614 2.3352790808 1.3482742489
636 1 302.3498238614 0.0 5.3930969122
637 1 304.2634331195 0.0 0.0
638 1 304.2634331195 2.3352790808 4.0448226634
639 1 306.1770383932 0.0 2.6965484145
640 1 306.1770383932 2.3352790808 6.7413710779
641 1 305.2202357564 2.3352790808 1.3482742489
642 1 305.2202357564 0.0 5.3930969122
643 1 307.1338410197 0.0 0.0
644 1 307.1338410197 2.3352790808 4.0448226634
645 1 309.0474502778 0.0 2.6965484145
646 1 309.0474502778 2.3352790808 6.7413710779
647 1 308.0906436565 2.3352790808 1.3482742489
648 1 308.0906436565 0.0 5.3930969122
649 1 310.0042529146 0.0 0.0
650 1 310.0042529146 2.3352790808 4.0448226634
651 1 311.917858178 0.0 2.6965484145
652 1 311.917858178 2.3352790808 6.7413710779
653 1 310.9610555515 2.3352790808 1.3482742489
654 1 310.9610555515 0.0 5.3930969122
655 1 312.8746608147 0.0 0.0
656 1 312.8746608147 2.3352790808 4.0448226634
657 1 314.7882660885 0.0 2.6965484145
658 1 314.7882660885 2.3352790808 6.7413710779
659 1 313.8314634516 2.3352790808 1.3482742489
660 1 313.8314634516 0.0 5.3930969122
661 1 315.7450727097 0.0 0.0
662 1 315.7450727097 2.3352790808 4.0448226634
663 1 317.658677973 0.0 2.6965484145
664 1 317.658677973 2.3352790808 6.7413710779
665 1 316.7018753465 2.3352790808 1.3482742489
666 1 316.7018753465 0.0 5.3930969122
667 1 318.6154806099 0.0 0.0
668 1 318.6154806099 2.3352790808 4.0448226634
669 1 320.5290858836 0.0 2.6965484145
670 1 320.5290858836 2.3352790808 6.7413710779
671 1 319.5722832467 2.3352790808 1.3482742489
672 1 319.5722832467 0.0 5.3930969122
673 1 321.4858925048 0.0 0.0
674 1 321.4858925048 2.3352790808 4.0448226634
675 1 323.3994977681 0.0 2.6965484145
676 1 323.3994977681 2.3352790808 6.7413710779
677 1 322.4426951313 2.3352790808 1.3482742489
678 1 322.4426951313 0.0 5.3930969122
679 1 324.356300405 0.0 0.0
680 1 324.356300405 2.3352790808 4.0448226634
681 1 326.2699056683 0.0 2.6965484145
682 1 326.2699056683 2.3352790808 6.7413710779
683 1 325.3131030418 2.3352790808 1.3482742489
684 1 325.3131030418 0.0 5.3930969122
685 1 327.2267083051 0.0 0.0
686 1 327.2267083051 2.3352790808 4.0448226634
687 1 329.1403175632 0.0 2.6965484145
688 1 329.1403175632 2.3352790808 6.7413710779
689 1 328.1835149264 2.3352790808 1.3482742489
690 1 328.1835149264 0.0 5.3930969122
691 1 330.0971202 0.0 0.0
692 1 330.0971202 2.3352790808 4.0448226634
693 1 332.0107254633 0.0 2.6965484145
694 1 332.0107254633 2.3352790808 6.7413710779
695 1 331.0539228369 2.3352790808 1.3482742489
696 1 331.0539228369 0.0 5.3930969122
697 1 332.9675281002 0.0 0.0
698 1 332.9675281002 2.3352790808 4.0448226634
699 1 334.8811373583 0.0 2.6965484145
700 1 334.8811373583 2.3352790808 6.7413710779
701 1 333.9243347214 2.3352790808 1.3482742489
702 1 333.9243347214 0.0 5.3930969122
703 1 335.8379399952 0.0 0.0
704 1 335.8379399952 2.3352790808 4.0448226634
705 1 337.7515452585 0.0 2.6965484145
706 1 337.7515452585 2.3352790808 6.7413710779
707 1 336.7947426216 2.3352790808 1.3482742489
708 1 336.7947426216 0.0 5.3930969122
709 1 338.7083478954 0.0 0.0
710 1 338.7083478954 2.3352790808 4.0448226634
711 1 340.6219571534 0.0 2.6965484145
712 1 340.6219571534 2.3352790808 6.7413710779
713 1 339.6651505321 2.3352790808 1.3482742489
714 1 339.6651505321 0.0 5.3930969122
715 1 341.5787597903 0.0 0.0
716 1 341.5787597903 2.3352790808 4.0448226634
717 1 343.4923650535 0.0 2.6965484145
718 1 343.4923650535 2.3352790808 6.7413710779
719 1 342.5355624168 2.3352790808 1.3482742489
720 1 342.5355624168 0.0 5.3930969122
721 1 344.4491676904 0.0 0.0
722 1 344.4491676904 2.3352790808 4.0448226634
723 1 346.3627769485 0.0 2.6965484145
724 1 346.3627769485 2.3352790808 6.7413710779
725 1 345.4059703273 2.3352790808 1.3482742489
726 1 345.4059703273 0.0 5.3930969122
727 1 347.3195795853 0.0 0.0
728 1 347.3195795853 2.3352790808 4.0448226634
729 1 349.2331848487 0.0 2.6965484145
730 1 349.2331848487 2.3352790808 6.7413710779
731 1 348.2763822118 2.3352790808 1.3482742489
732 1 348.2763822118 0.0 5.3930969122
733 1 350.1899874855 0.0 0.0
734 1 350.1899874855 2.3352790808 4.0448226634
735 1 352.1035927488 0.0 2.6965484145
736 1 352.1035927488 2.3352790808 6.7413710779
737 1 351.146790112 2.3352790808 1.3482742489