# LAMMPS data file written by OVITO Basic 3.3.0
76608 atoms
1 atom types
0.0 406.663119182 xlo xhi
0.0 395.4283948316 ylo yhi
0.0 8.5803118129 zlo zhi
0.0 0.0301734407 0.0 xy xz yz

Masses

1 1.008  # H

Atoms  # atomic

1 1 -0.0037940911 0.0 -1.0789114259
2 1 3.0537844576 3.5306101046 -1.0903158579
3 1 0.5124977973 2.6479585693 0.8235361578
4 1 7.6401738357 2.6479585693 -1.1001403427
5 1 5.0988909727 1.765307034 0.8136389342
6 1 12.2265677082 1.765307034 -1.1098439117
7 1 9.6852805174 0.8826515353 0.8038609306
8 1 16.8129579395 0.8826515353 -1.119425691
9 1 14.2716745459 0.0 0.7942030314
10 1 1.524969581 7.9438757079 -1.0918952536
11 1 6.1113588761 7.061220209 -1.1017424069
12 1 3.5700761795 6.1785686737 0.8120845787
13 1 10.6977526757 6.1785686737 -1.111465461
14 1 8.156469719 5.2959171386 0.8022863307
15 1 15.2841428446 5.2959171386 -1.1210632819
16 1 12.7428596277 4.4132616397 0.7926115263
17 1 19.8705375284 4.4132616397 -1.1305349336
18 1 17.3292540203 3.5306101046 0.7830610917
19 1 4.5825476303 11.4744858123 -1.1034453401
20 1 2.0412610429 10.5918303136 0.81043182
21 1 9.1689372687 10.5918303136 -1.1131922382
22 1 6.6276544888 9.7091787783 0.8006090724
23 1 13.7553314428 9.7091787783 -1.1228105638
24 1 11.2140443144 8.826527243 0.7909129833
25 1 18.3417219965 8.826527243 -1.1322991205
26 1 15.8004386549 7.9438757079 0.781344728
27 1 20.386829396 7.061220209 0.771905399
28 1 18.8580135728 11.4744858123 0.7700596723
29 1 2.5475463602 0.8826515353 -0.1326524228
30 1 7.133939702 0.0 -0.1425035085
31 1 1.0187357906 5.2959171386 -0.1341594647
32 1 5.6051250024 4.4132616397 -0.1440314502
33 1 10.1915187084 3.5306101046 -0.153781823
34 1 14.7779087732 2.6479585693 -0.1634095322
35 1 19.3643033322 1.765307034 -0.1729137769
36 1 4.0763099491 8.826527243 -0.1456595848
37 1 8.6627035718 7.9438757079 -0.1554319602
38 1 13.2490935639 7.061220209 -0.1650783327
39 1 17.8354880812 6.1785686737 -0.1745976827
40 1 11.720282058 11.4744858123 -0.1668550242
41 1 16.3066724454 10.5918303136 -0.1763940361
42 1 20.8930673477 9.7091787783 -0.1858013547
43 1 21.3993526649 0.0 -1.1288849628
44 1 24.4569326595 3.5306101046 -1.1398796772
45 1 21.915644803 2.6479585693 0.773635859
46 1 29.0433241705 2.6479585693 -1.1490969301
47 1 26.5020401006 1.765307034 0.7643364419
48 1 33.6297201963 1.765307034 -1.1581863388
49 1 31.0884317572 0.8826515353 0.7551632672
50 1 38.2161126123 0.8826515353 -1.1671477784
51 1 35.6748279391 0.0 0.7461165114
52 1 22.9281170757 7.9438757079 -1.14165692
53 1 27.5145085554 7.061220209 -1.1508831197
54 1 24.9732246416 6.1785686737 0.7625958078
55 1 32.1009045708 6.1785686737 -1.1599771473
56 1 29.5596162877 5.2959171386 0.7534166511
57 1 36.6872969868 5.2959171386 -1.1689385973
58 1 34.1460124592 4.4132616397 0.7443683452
59 1 41.2736939177 4.4132616397 -1.1777673446
60 1 38.7324090989 3.5306101046 0.7354511295
61 1 25.9856925138 11.4744858123 -1.1527922954
62 1 23.4444087665 10.5918303136 0.7607351941
63 1 30.572088498 10.5918303136 -1.1618957794
64 1 28.0308044385 9.7091787783 0.7515453014
65 1 35.1584849504 9.7091787783 -1.1708621085
66 1 32.617196532 8.826527243 0.7424906912
67 1 39.7448778345 8.826527243 -1.1796908557
68 1 37.2035931508 7.9438757079 0.7335718422
69 1 41.789986191 7.061220209 0.7247889936
70 1 40.2611697749 11.4744858123 0.7227736746
71 1 23.9506942814 0.8826515353 -0.1822938496
72 1 28.5370897246 0.0 -0.1915493029
73 1 22.4218789888 5.2959171386 -0.1839890845
74 1 27.0082744008 4.4132616397 -0.1932518096
75 1 31.5946702706 3.5306101046 -0.2023853692
76 1 36.1810625409 2.6479585693 -0.2113894513
77 1 40.7674593262 1.765307034 -0.2202640661
78 1 25.4794586505 8.826527243 -0.1950760018
79 1 30.0658544995 7.9438757079 -0.204217239
80 1 34.6522467594 7.061220209 -0.2132244836
81 1 39.2386435343 6.1785686737 -0.2220974651
82 1 33.1234304993 11.4744858123 -0.215190554
83 1 37.7098272846 10.5918303136 -0.2240668646
84 1 42.2962245485 9.7091787783 -0.2328038146
85 1 42.8025095432 0.0 -1.1759814047
86 1 45.86008727 3.5306101046 -1.1864635246
87 1 43.3188021182 2.6479585693 0.7266649415
88 1 50.4464851475 2.6479585693 -1.1950275846
89 1 47.9051996733 1.765307034 0.7180094482
90 1 55.0328834725 1.765307034 -1.2034602529
91 1 52.4915936185 0.8826515353 0.7094840671
92 1 59.6192782084 0.8826515353 -1.2117625593
93 1 57.0779920787 0.0 0.7010878619
94 1 44.3312752648 7.9438757079 -1.1883818967
95 1 48.9176690956 7.061220209 -1.1969353767
96 1 46.3763837774 6.1785686737 0.7161420828
97 1 53.5040674933 6.1785686737 -1.2053517744
98 1 50.9627777641 5.2959171386 0.7076307668
99 1 58.090462302 5.2959171386 -1.21363187
100 1 55.5491762971 4.4132616397 0.6992543796
101 1 62.6768616569 4.4132616397 -1.2217767975
102 1 60.1355712411 3.5306101046 0.6910119329
103 1 47.3888525442 11.4744858123 -1.1989911534
104 1 44.8475673612 10.5918303136 0.714130301
105 1 51.9752509732 10.5918303136 -1.2073963574
106 1 49.4339613896 9.7091787783 0.705628046
107 1 56.5616458443 9.7091787783 -1.215659215
108 1 54.0203599851 8.826527243 0.6972665562
109 1 61.1480452719 8.826527243 -1.2237806002
110 1 58.6067590591 7.9438757079 0.6890450927
111 1 63.1931545544 7.061220209 0.6809626257
112 1 61.6643378262 11.4744858123 0.6788574547
113 1 45.3538524808 0.8826515353 -0.2290093802
114 1 49.9402501816 0.0 -0.2376259344
115 1 43.8250367304 5.2959171386 -0.2308361212
116 1 48.4114344728 4.4132616397 -0.2394407014
117 1 52.997828595 3.5306101046 -0.2479117261
118 1 57.5842272631 2.6479585693 -0.2562500795
119 1 62.1706263996 1.765307034 -0.2644569681
120 1 46.8826182336 8.826527243 -0.2414013311
121 1 51.4690164857 7.9438757079 -0.2498596951
122 1 56.0554111592 7.061220209 -0.2581794684
123 1 60.6418103788 6.1785686737 -0.2663616079
124 1 54.5265944933 11.4744858123 -0.2602656432
125 1 59.112993765 10.5918303136 -0.2684280791
126 1 63.6993894995 9.7091787783 -0.2764476279
127 1 64.2056774592 0.0 -1.2199359498
128 1 67.2632574018 3.5306101046 -1.2297880862
129 1 64.7219707208 2.6479585693 0.6829020537
130 1 71.8496576825 2.6479585693 -1.2376676397
131 1 69.3083706375 1.765307034 0.6749230355
132 1 76.4360543534 1.765307034 -1.2454177677
133 1 73.894766965 0.8826515353 0.6670727565
134 1 81.0224555288 0.8826515353 -1.2530412062
135 1 78.4811677971 0.0 0.6593486571
136 1 65.734445199 7.9438757079 -1.2317617406
137 1 70.3208415474 7.061220209 -1.2396042485
138 1 67.7795546166 6.1785686737 0.6730176363
139 1 74.9072424315 6.1785686737 -1.2473102151
140 1 72.3659510794 5.2959171386 0.6652082832
141 1 79.4936397369 5.2959171386 -1.2548821475
142 1 76.9523520676 4.4132616397 0.6575322776
143 1 84.0800415573 4.4132616397 -1.2623229898
144 1 81.5387494562 3.5306101046 0.6499868836
145 1 68.7920247983 11.4744858123 -1.2417155781
146 1 66.250737982 10.5918303136 0.6709415214
147 1 73.3784258177 10.5918303136 -1.2493822416
148 1 70.8371345801 9.7091787783 0.6631682984
149 1 77.9648232792 9.7091787783 -1.2569072662
150 1 75.4235357138 8.826527243 0.6555357364
151 1 82.5512253076 8.826527243 -1.264293388
152 1 80.0099332897 7.9438757079 0.6480413802
153 1 84.5963354015 7.061220209 0.6406822546
154 1 83.0675187565 11.4744858123 0.6386031124
155 1 66.7570219261 0.8826515353 -0.2725339111
156 1 71.3434219572 0.0 -0.2804829056
157 1 65.2282059989 5.2959171386 -0.274407383
158 1 69.8146061756 4.4132616397 -0.2823184998
159 1 74.4010027424 3.5306101046 -0.2900970387
160 1 78.9874038347 2.6479585693 -0.2977455488
161 1 83.5738013065 1.765307034 -0.3052669531
162 1 68.2857897803 8.826527243 -0.2843256834
163 1 72.8721864927 7.9438757079 -0.2920640663
164 1 77.4585877513 7.061220209 -0.299665034
165 1 82.0449894886 6.1785686737 -0.3071313328
166 1 75.9297710336 11.4744858123 -0.3017682075
167 1 80.5161729476 10.5918303136 -0.3091840198
168 1 85.1025712725 9.7091787783 -0.316460274
169 1 85.6088571515 0.0 -1.2605411488
170 1 88.6664397678 3.5306101046 -1.2696361752
171 1 86.1251513703 2.6479585693 0.642568897
172 1 93.2528424725 2.6479585693 -1.2768256566
173 1 90.7115496432 1.765307034 0.6352746559
174 1 97.839241536 1.765307034 -1.283895814
175 1 95.2979523998 0.8826515353 0.62810003
176 1 102.4256450729 0.8826515353 -1.2908515782
177 1 99.8843555623 0.0 0.6210403903
178 1 87.1376237262 7.9438757079 -1.2715438216
179 1 91.7240266806 7.061220209 -1.2786622702
180 1 89.1827379709 6.1785686737 0.6334548848
181 1 96.3104300926 6.1785686737 -1.28565301
182 1 93.7691369304 5.2959171386 0.6263553387
183 1 100.8968298636 5.2959171386 -1.2925207948
184 1 98.3555403945 4.4132616397 0.6193791218
185 1 105.4832341184 4.4132616397 -1.2992709617
186 1 102.9419401968 3.5306101046 0.6125212304
187 1 90.1952101916 11.4744858123 -1.2806998936
188 1 87.6539215548 10.5918303136 0.631438328
189 1 94.7816138534 10.5918303136 -1.2876150856
190 1 92.240320764 9.7091787783 0.6244098873
191 1 99.3680139261 9.7091787783 -1.2943983865
192 1 96.8267244986 8.826527243 0.617513473
193 1 103.9544185137 8.826527243 -1.3010550082
194 1 101.4131246233 7.9438757079 0.6107442475
195 1 105.9995292317 7.061220209 0.6040967702
196 1 104.4707132422 11.4744858123 0.6022009001
197 1 88.1602032933 0.8826515353 -0.3126646848
198 1 92.7466056755 0.0 -0.3199426138
199 1 86.6313876263 5.2959171386 -0.3144661567
200 1 91.2177902685 4.4132616397 -0.321673209
201 1 95.80418928 3.5306101046 -0.3287566615
202 1 100.3905927857 2.6479585693 -0.3357212373
203 1 104.9769926087 1.765307034 -0.3425721378
204 1 89.6889741645 8.826527243 -0.3236004861
205 1 94.2753734465 7.9438757079 -0.3306086199
206 1 98.8617772331 7.061220209 -0.3374892214
207 1 103.4481773891 6.1785686737 -0.3442474194
208 1 97.3329609523 11.4744858123 -0.3394662879
209 1 101.9193654879 10.5918303136 -0.3461351438
210 1 106.5057664135 9.7091787783 -0.3526779238
211 1 107.0120449064 0.0 -1.2976983384
212 1 110.0696347008 3.5306101046 -1.3059093467
213 1 107.5283444723 2.6479585693 0.6057761194
214 1 114.6560397045 2.6479585693 -1.3124423686
215 1 112.1147450547 1.765307034 0.599137776
216 1 119.2424410048 1.765307034 -1.318876883
217 1 116.7011500481 0.8826515353 0.5925996253
218 1 123.8288466952 0.8826515353 -1.3252203076
219 1 121.2875513067 0.0 0.5861546349
220 1 108.5408194602 7.9438757079 -1.3075906829
221 1 113.1272248593 7.061220209 -1.3140117877
222 1 110.5859301991 6.1785686737 0.597565059
223 1 117.7136265861 6.1785686737 -1.3203252096
224 1 115.1723355877 5.2959171386 0.5911425498
225 1 122.3000327343 5.2959171386 -1.326538449
226 1 119.7587413614 4.4132616397 0.5848221683
227 1 126.8864391945 4.4132616397 -1.3326594958
228 1 124.3451433899 3.5306101046 0.5785962786
229 1 111.5984092339 11.4744858123 -1.3158043857
230 1 109.0571186204 10.5918303136 0.5957730749
231 1 116.1848154444 10.5918303136 -1.3219986914
232 1 113.6435203576 9.7091787783 0.5894640433
233 1 120.7712179618 9.7091787783 -1.3280830983
234 1 118.2299265578 8.826527243 0.5832666582
235 1 125.3576249213 8.826527243 -1.3340657
236 1 122.8163290544 7.9438757079 0.5771732629
237 1 127.4027359515 7.061220209 0.5711755871
238 1 125.8739213039 11.4744858123 0.5696611069
239 1 109.5633968948 0.8826515353 -0.3493150953
240 1 114.1497974668 0.0 -0.35595631
241 1 108.0345820286 5.2959171386 -0.3508888526
242 1 112.6209870429 4.4132616397 -0.3574196899
243 1 117.2073883743 3.5306101046 -0.3638466829
244 1 121.7937941063 2.6479585693 -0.370177093
245 1 126.3801960827 1.765307034 -0.3764186706
246 1 111.0921718022 8.826527243 -0.3591007868
247 1 115.6785735498 7.9438757079 -0.365410401
248 1 120.2649797188 7.061220209 -0.3716141112
249 1 124.8513821738 6.1785686737 -0.377719751
250 1 118.7361645302 11.4744858123 -0.3732799676
251 1 123.322571521 10.5918303136 -0.3792507721
252 1 127.9089748083 9.7091787783 -0.3851221433
253 1 128.4152486092 0.0 -1.3314805069
254 1 131.4728418887 3.5306101046 -1.3386968388
255 1 128.9315497876 2.6479585693 0.5724567558
256 1 136.0592489107 2.6479585693 -1.3446594977
257 1 133.5179523987 1.765307034 0.5663950173
258 1 140.6456520939 1.765307034 -1.3505568664
259 1 138.1043593167 0.8826515353 0.5604019813
260 1 145.2320595424 0.8826515353 -1.3563987238
261 1 142.6907623646 0.0 0.5544682328
262 1 129.9440281358 7.9438757079 -1.3399551311
263 1 134.5304356987 7.061220209 -1.3457606295
264 1 131.9891390931 6.1785686737 0.5652648504
265 1 139.116839475 6.1785686737 -1.3514918911
266 1 136.5755465624 5.2959171386 0.5594317212
267 1 143.7032475373 5.2959171386 -1.3571590588
268 1 141.1619502138 4.4132616397 0.553666483
269 1 148.2896517192 4.4132616397 -1.362772692
270 1 145.7483581408 3.5306101046 0.547958951
271 1 133.0016216649 11.4744858123 -1.3470981312
272 1 130.4603290437 10.5918303136 0.5639012576
273 1 137.5880260341 10.5918303136 -1.3526622869
274 1 135.0467330072 9.7091787783 0.558228701
275 1 142.1744347102 9.7091787783 -1.3581530069
276 1 139.6331413296 8.826527243 0.5526333253
277 1 146.7608436151 8.826527243 -1.3635812143
278 1 144.2195458131 7.9438757079 0.5471046651
279 1 148.8059545517 7.061220209 0.5416317138
280 1 147.2771420367 11.4744858123 0.5407272743
281 1 130.9666023973 0.8826515353 -0.3825796343
282 1 135.5530049147 0.0 -0.388668681
283 1 129.4377890085 5.2959171386 -0.3837357155
284 1 134.0241920669 4.4132616397 -0.3896708997
285 1 138.6105994218 3.5306101046 -0.3955346765
286 1 143.197007016 2.6479585693 -0.4013368355
287 1 147.7834107193 1.765307034 -0.4070875199
288 1 132.4953824544 8.826527243 -0.3909031839
289 1 137.0817863347 7.9438757079 -0.3966035065
290 1 141.6681945322 7.061220209 -0.4022332437
291 1 146.2545988806 6.1785686737 -0.407802934
292 1 140.1393812162 11.4744858123 -0.4033675095
293 1 144.7257861888 10.5918303136 -0.4087540212
294 1 149.3121954474 9.7091787783 -0.4140825144
295 1 149.8184630793 0.0 -1.3621952131
296 1 152.8760601144 3.5306101046 -1.3683436618
297 1 150.3347662344 2.6479585693 0.5422986077
298 1 157.4624686343 2.6479585693 -1.3738831309
299 1 154.9211703747 1.765307034 0.5366746442
300 1 162.0488731492 1.765307034 -1.3794024595
301 1 159.5075786762 0.8826515353 0.5310760124
302 1 166.6352817525 0.8826515353 -1.3849131223
303 1 164.0939829621 0.0 0.525491508
304 1 151.3472486293 7.9438757079 -1.3689582902
305 1 155.9336578568 7.061220209 -1.3742959278
306 1 153.3923593889 6.1785686737 0.5362031839
307 1 160.5200630894 6.1785686737 -1.3796061012
308 1 157.9787684084 5.2959171386 0.5308074447
309 1 165.1064724729 5.2959171386 -1.3849009506
310 1 162.5651734225 4.4132616397 0.5254326887
311 1 169.6928777888 4.4132616397 -1.3901927207
312 1 167.1515825459 3.5306101046 0.5200669521
313 1 154.4048462469 11.4744858123 -1.3749440545
314 1 151.8635475711 10.5918303136 0.535497611
315 1 158.991252239 10.5918303136 -1.3800403286
316 1 156.4499573187 9.7091787783 0.5303090402
317 1 163.5776623923 9.7091787783 -1.385113799
318 1 161.0363630922 8.826527243 0.5251491092
319 1 168.1640685093 8.826527243 -1.3901774801
320 1 165.6227729959 7.9438757079 0.5200051261
321 1 170.2091829204 7.061220209 0.5148643578
322 1 168.6803733704 11.4744858123 0.514805736
323 1 152.369818636 0.8826515353 -0.4127972052
324 1 156.9562225786 0.0 -0.4184766175
325 1 150.8410074422 5.2959171386 -0.4133235214
326 1 155.4274120923 4.4132616397 -0.4188062414
327 1 160.0138209036 3.5306101046 -0.4242625997
328 1 164.6002256786 2.6479585693 -0.4297042271
329 1 169.1866345522 1.765307034 -0.435142921
330 1 153.8986048725 8.826527243 -0.4193647448
331 1 158.4850103444 7.9438757079 -0.4246127905
332 1 163.0714199464 7.061220209 -0.4298389999
333 1 167.6578255224 6.1785686737 -0.4350557946
334 1 161.5426093353 11.4744858123 -0.4302048475
335 1 166.1290157122 10.5918303136 -0.4351936779
336 1 170.7154261673 9.7091787783 -0.4401791792
337 1 171.2216862881 0.0 -1.3904266667
338 1 174.2792871411 3.5306101046 -1.3954937184
339 1 171.7379875913 2.6479585693 0.5146982091
340 1 178.8656923425 2.6479585693 -1.400816105
341 1 176.3243966523 1.765307034 0.5093144543
342 1 183.4521014971 1.765307034 -1.4061719897
343 1 180.9108056093 0.8826515353 0.5039037866
344 1 188.0385104957 0.8826515353 -1.4115731802
345 1 185.4972103738 0.0 0.4984544816
346 1 172.7504786729 7.9438757079 -1.3952444278
347 1 177.3368887951 7.061220209 -1.4003276875
348 1 174.7955887251 6.1785686737 0.5097139977
349 1 181.9232947455 6.1785686737 -1.4054401698
350 1 179.3819985248 5.2959171386 0.5045413021
351 1 186.5097045971 5.2959171386 -1.4105946182
352 1 183.9684041423 4.4132616397 0.499333735
353 1 191.0961102147 4.4132616397 -1.4158034441
354 1 188.5548136403 3.5306101046 0.4940789377
355 1 175.8080804205 11.4744858123 -1.4000555932
356 1 173.2667800282 10.5918303136 0.5098961257
357 1 180.3944872553 10.5918303136 -1.4049160903
358 1 177.8531907017 9.7091787783 0.5049694957
359 1 184.9808980224 9.7091787783 -1.4098145485
360 1 182.4395971931 8.826527243 0.5000123845
361 1 189.5673045347 8.826527243 -1.4147643567
362 1 187.0260075961 7.9438757079 0.4950115072
363 1 191.6124137338 7.061220209 0.4899539224
364 1 190.0836119757 11.4744858123 0.4909495871
365 1 173.7730433843 0.8826515353 -0.440590447
366 1 178.3594480864 0.0 -0.4460585297
367 1 172.244235166 5.2959171386 -0.4402757205
368 1 176.8306406691 4.4132616397 -0.4455112928
369 1 181.4170501565 3.5306101046 -0.4507749016
370 1 186.0034554308 2.6479585693 -0.4560787706
371 1 190.589864575 1.765307034 -0.4614348322
372 1 175.3018325235 8.826527243 -0.445174678
373 1 179.8882428745 7.9438757079 -0.4501934592
374 1 184.4746530798 7.061220209 -0.4552486201
375 1 189.0610590511 6.1785686737 -0.4603530086
376 1 182.9458459433 11.4744858123 -0.4546242959
377 1 187.5322528404 10.5918303136 -0.459467274
378 1 192.1186635972 9.7091787783 -0.4643694254
379 1 192.6249152185 0.0 -1.4170312446
380 1 195.6825196502 3.5306101046 -1.4210787148
381 1 193.1412188833 2.6479585693 0.4887649049
382 1 200.268924758 2.6479585693 -1.42643203
383 1 197.7276279444 1.765307034 0.483380037
384 1 204.8553336005 1.765307034 -1.4318745
385 1 202.3140326464 0.8826515353 0.4779131818
386 1 209.4417380426 0.8826515353 -1.4374166219
387 1 206.9004410728 0.0 0.4723537075
388 1 194.153714896 7.9438757079 -1.41977855
389 1 198.7401209089 7.061220209 -1.4248696745
390 1 196.1988236999 6.1785686737 0.4848270839
391 1 203.3265306877 6.1785686737 -1.4300497772
392 1 200.7852333747 5.2959171386 0.4796189342
393 1 207.9129401128 5.2959171386 -1.4353302807
394 1 205.3716386593 4.4132616397 0.4743179262
395 1 212.499345075 4.4132616397 -1.4407219627
396 1 209.9580476475 3.5306101046 0.4689131674
397 1 197.2113205137 11.4744858123 -1.4234864093
398 1 194.6700188104 10.5918303136 0.4860915242
399 1 201.7977271922 10.5918303136 -1.4283925659
400 1 199.2564294423 9.7091787783 0.4811532116
401 1 206.3841375641 9.7091787783 -1.4333996018
402 1 203.8428356737 8.826527243 0.4761221445
403 1 210.9705434937 8.826527243 -1.4385192414
404 1 208.4292455982 7.9438757079 0.4709864215
405 1 213.0156510597 7.061220209 0.4657349429
406 1 211.4868535149 11.4744858123 0.4679293728
407 1 195.1762694435 0.8826515353 -0.4668546546
408 1 199.7626781196 0.0 -0.4723494421
409 1 193.6474688819 5.2959171386 -0.4655191295
410 1 198.233874385 4.4132616397 -0.4707590607
411 1 202.8202836332 3.5306101046 -0.476084381
412 1 207.4066885018 2.6479585693 -0.4815061073
413 1 211.993097053 1.765307034 -0.4870346218
414 1 196.7050700157 8.826527243 -0.4693437954
415 1 201.2914802211 7.9438757079 -0.4744029615
416 1 205.8778860154 7.061220209 -0.4795588664
417 1 210.4642954926 6.1785686737 -0.484822829
418 1 204.3490870246 11.4744858123 -0.477774872
419 1 208.935493412 10.5918303136 -0.4827620483
420 1 213.5219034405 9.7091787783 -0.4878698907
421 1 214.0281461569 0.0 -1.4430683098
422 1 217.0857536782 3.5306101046 -1.4462348622
423 1 214.5444521519 2.6479585693 0.4633944422
424 1 221.6721577561 2.6479585693 -1.4518782795
425 1 219.1308603078 1.765307034 0.4577521797
426 1 226.2585654126 1.765307034 -1.4576607454
427 1 223.717263928 0.8826515353 0.4519776514
428 1 230.8449684814 0.8826515353 -1.4635899685
429 1 228.303671106 0.0 0.4460628053
430 1 215.5569530436 7.9438757079 -1.44376246
431 1 220.1433580579 7.061220209 -1.4491394007
432 1 217.6020601414 6.1785686737 0.4603572739
433 1 224.7297666403 6.1785686737 -1.4546593847
434 1 222.1884646771 5.2959171386 0.4548438335
435 1 229.3161706141 5.2959171386 -1.4603308697
436 1 226.7748727601 4.4132616397 0.4491858725
437 1 233.9025781043 4.4132616397 -1.466161419
438 1 231.3612803231 3.5306101046 0.4433754533
439 1 218.6145579019 11.4744858123 -1.446528387
440 1 216.0732595068 10.5918303136 0.4628289582
441 1 223.2009674623 10.5918303136 -1.4517729997
442 1 220.6596690568 9.7091787783 0.4575892766
443 1 227.7873764608 9.7091787783 -1.4571740028
444 1 225.2460740399 8.826527243 0.4522007573
445 1 232.3737807988 8.826527243 -1.4627396775
446 1 229.8324825286 7.9438757079 0.4466547134
447 1 234.4188863568 7.061220209 0.4409434259
448 1 232.8900891553 11.4744858123 0.444391581
449 1 216.5795011205 0.8826515353 -0.4926796517
450 1 221.1659088186 0.0 -0.4984502164
451 1 215.0507045535 5.2959171386 -0.4902054394
452 1 219.6371090997 4.4132616397 -0.4957165391
453 1 224.2235172243 3.5306101046 -0.5013651789
454 1 228.8099207717 2.6479585693 -0.5071595771
455 1 233.3963278561 1.765307034 -0.5131071409
456 1 218.1083089437 8.826527243 -0.4931091249
457 1 222.6947180046 7.9438757079 -0.4984896547
458 1 227.2811224882 7.061220209 -0.5040204891
459 1 231.8675304674 6.1785686737 -0.5097097324
460 1 225.7523238094 11.4744858123 -0.5009903741
461 1 230.3387327457 10.5918303136 -0.5064083969
462 1 234.9251410784 9.7091787783 -0.511998186
463 1 235.4313750873 0.0 -1.4696728773
464 1 238.4889850014 3.5306101046 -1.4721577217
465 1 235.9476832566 2.6479585693 0.4374055435
466 1 243.075387238 2.6479585693 -1.4783256034
467 1 240.5340896649 1.765307034 0.4312699323
468 1 247.6617929283 1.765307034 -1.484670037
469 1 245.1204914125 0.8826515353 0.4249632206
470 1 252.2481938956 0.8826515353 -1.4911951629
471 1 249.7068966138 0.0 0.4184808932
472 1 236.9601886218 7.9438757079 -1.4684773786
473 1 241.5465917426 7.061220209 -1.4743934729
474 1 239.0052936701 6.1785686737 0.4350600598
475 1 246.132998286 6.1785686737 -1.4804934533
476 1 243.5916962811 5.2959171386 0.4289987376
477 1 250.7194000856 5.2959171386 -1.4867818243
478 1 248.1781023044 4.4132616397 0.4227544655
479 1 255.3058052974 4.4132616397 -1.4932623103
480 1 252.7645036151 3.5306101046 0.4163231343
481 1 240.0177959975 11.4744858123 -1.4705317509
482 1 237.4764973945 10.5918303136 0.4387731728
483 1 244.6042034252 10.5918303136 -1.4763749608
484 1 242.0629049782 9.7091787783 0.4329695261
485 1 249.1906061194 9.7091787783 -1.4824147902
486 1 246.6493078182 8.826527243 0.4269752001
487 1 253.7770121636 8.826527243 -1.4886552755
488 1 251.2357140495 7.9438757079 0.4207856278
489 1 255.8221155058 7.061220209 0.4143972201
490 1 254.2933225696 11.4744858123 0.4190601406
491 1 237.9827303006 0.8826515353 -0.5192144348
492 1 242.5691362304 0.0 -0.5254872323
493 1 236.4539337962 5.2959171386 -0.5155645729
494 1 241.0403405997 4.4132616397 -0.5215913464
495 1 245.626746779 3.5306101046 -0.5277954415
496 1 250.2131482353 2.6479585693 -0.5341814149
497 1 254.7995531246 1.765307034 -0.5407530117
498 1 239.5115447194 8.826527243 -0.5177666389
499 1 244.097951783 7.9438757079 -0.5237197372
500 1 248.6843540923 7.061220209 -0.5298624642
501 1 253.2707598035 6.1785686737 -0.5361989082
502 1 247.1555597725 11.4744858123 -0.5255948529
503 1 251.7419663575 10.5918303136 -0.5316844094
504 1 256.3283681363 9.7091787783 -0.5379798442
505 1 256.8345982961 0.0 -1.4979043309
506 1 259.8922057447 3.5306101046 -1.4999377098
507 1 257.3509083171 2.6479585693 0.4097014464
508 1 264.4786095625 2.6479585693 -1.5068101032
509 1 261.9373123534 1.765307034 0.4028869049
510 1 269.0650126936 1.765307034 -1.5138808015
511 1 266.5237116147 0.8826515353 0.395877762
512 1 273.6514110498 0.8826515353 -1.5211504392
513 1 271.1101142777 0.0 0.3886729671
514 1 258.3634174899 7.9438757079 -1.4950995377
515 1 262.9498180307 7.061220209 -1.5017498448
516 1 260.4085203119 6.1785686737 0.4078072097
517 1 267.5362219109 6.1785686737 -1.508607653
518 1 264.9949203534 5.2959171386 0.4010137033
519 1 272.1226209849 5.2959171386 -1.5156736387
520 1 269.5813237342 4.4132616397 0.3940155358
521 1 276.7090233878 4.4132616397 -1.522947833
522 1 274.1677223297 3.5306101046 0.3868122494
523 1 261.4210264469 11.4744858123 -1.4967047125
524 1 258.8797282183 10.5918303136 0.4127057199
525 1 266.0074311074 10.5918303136 -1.5033393836
526 1 263.4661290505 9.7091787783 0.4061382844
527 1 270.5938309199 9.7091787783 -1.5101921359
528 1 268.0525331908 8.826527243 0.3993565337
529 1 275.1802340511 8.826527243 -1.5172630007
530 1 272.6389365716 7.9438757079 0.3923599889
531 1 277.2253351358 7.061220209 0.3851488586
532 1 275.6965460696 11.4744858123 0.3909108822
533 1 259.3859532701 0.8826515353 -0.547513124
534 1 263.9723568279 0.0 -0.5544639572
535 1 257.8571607604 5.2959171386 -0.5427322838
536 1 262.4435650672 4.4132616397 -0.5494649733
537 1 267.0299646093 3.5306101046 -0.5563985893
538 1 271.6163675116 2.6479585693 -0.563534016
539 1 276.2027656285 1.765307034 -0.5708714719
540 1 260.9147732545 8.826527243 -0.54448381
541 1 265.5011776341 7.9438757079 -0.5511980652
542 1 270.0875772074 7.061220209 -0.5581235667
543 1 274.6739800994 6.1785686737 -0.5652605643
544 1 268.5587869032 11.4744858123 -0.5527114842
545 1 273.1451905442 10.5918303136 -0.5596386711
546 1 277.7315893269 9.7091787783 -0.5667870184
547 1 278.2378127766 0.0 -1.5286190268
548 1 281.2954210053 3.5306101046 -1.5304295909
549 1 278.7541242645 2.6479585693 0.3794040521
550 1 285.8818219623 2.6479585693 -1.5381177369
551 1 283.3405214243 1.765307034 0.3717917554
552 1 290.4682181235 1.765307034 -1.5460105441
553 1 287.9269219339 0.8826515353 0.3639766702
554 1 295.0546176552 0.8826515353 -1.5541058902
555 1 292.5133217257 0.0 0.3559605961
556 1 279.7666323448 7.9438757079 -1.5245512705
557 1 284.3530339468 7.061220209 -1.532055676
558 1 281.8117370187 6.1785686737 0.3777240266
559 1 288.9394347893 6.1785686737 -1.5397743241
560 1 286.3981340849 5.2959171386 0.3700869497
561 1 293.525830836 5.2959171386 -1.5477048635
562 1 290.98453448 4.4132616397 0.3622395938
563 1 298.1122301908 4.4132616397 -1.5558445166
564 1 295.5709300793 3.5306101046 0.3541844143
565 1 282.8242460457 11.4744858123 -1.5259620415
566 1 280.2829486391 10.5918303136 0.3836819417
567 1 287.4106475332 10.5918303136 -1.5334990714
568 1 284.8693463606 9.7091787783 0.3762306233
569 1 291.9970441729 9.7091787783 -1.5412580317
570 1 289.4557473799 8.826527243 0.3685590599
571 1 296.5834440999 8.826527243 -1.5492358846
572 1 294.0421435618 7.9438757079 0.360669925
573 1 298.628543052 7.061220209 0.3525663189
574 1 297.0997572732 11.4744858123 0.3592646572
575 1 280.7891671057 0.8826515353 -0.5784105719
576 1 285.3755678858 0.0 -0.5861503593
577 1 279.260378185 5.2959171386 -0.5726086209
578 1 283.8467795997 4.4132616397 -0.5801667068
579 1 288.4331762082 3.5306101046 -0.5879332301
580 1 293.019576156 2.6479585693 -0.5959061208
581 1 297.6059713288 1.765307034 -0.6040828611
582 1 282.317991397 8.826527243 -0.5741554029
583 1 286.9043886504 7.9438757079 -0.5817420662
584 1 291.4907892016 7.061220209 -0.5895447716
585 1 296.0771889933 6.1785686737 -0.5975607729
586 1 289.9620024032 11.4744858123 -0.583138845
587 1 294.548402788 10.5918303136 -0.5909876053
588 1 299.1347983353 9.7091787783 -0.5990563194
589 1 299.641016469 0.0 -1.5624011849
590 1 302.6986247706 3.5306101046 -1.5641901001
591 1 300.1573290181 2.6479585693 0.3459242096
592 1 307.2850227003 2.6479585693 -1.5727381392
593 1 304.7437231817 1.765307034 0.3374622044
594 1 311.8714158757 1.765307034 -1.5814848785
595 1 309.3301207265 0.8826515353 0.3288018632
596 1 316.4578124113 0.8826515353 -1.5904263544
597 1 313.916513517 0.0 0.3199469103
598 1 301.1698392207 7.9438757079 -1.5574291451
599 1 305.75623766 7.061220209 -1.5658340578
600 1 303.2149418034 6.1785686737 0.3442517055
601 1 310.3426312828 6.1785686737 -1.5744465132
602 1 307.8013357591 5.2959171386 0.3357298927
603 1 314.9290282762 5.2959171386 -1.5832622255
604 1 312.3877330645 4.4132616397 0.3270049064
605 1 319.5154245725 4.4132616397 -1.5922766482
606 1 316.9741256054 3.5306101046 0.3180810327
607 1 304.2274528278 11.4744858123 -1.5588634482
608 1 301.6861565656 10.5918303136 0.3511029911
609 1 308.813851028 10.5918303136 -1.5673370008
610 1 306.2725510206 9.7091787783 0.342724648
611 1 313.4002444115 9.7091787783 -1.5760228401
612 1 310.8589488046 8.826527243 0.334134008
613 1 317.9866411136 8.826527243 -1.584916087
614 1 315.4453417926 7.9438757079 0.3253357314
615 1 320.0317381202 7.061220209 0.3163346247
616 1 318.502955015 11.4744858123 0.3237896986
617 1 302.1923698514 0.8826515353 -0.6124605903
618 1 306.7787636302 0.0 -0.6210361042
619 1 300.6635839998 5.2959171386 -0.6057869178
620 1 305.2499823351 4.4132616397 -0.6142197525
621 1 309.8363758954 3.5306101046 -0.6228554903
622 1 314.4227728055 2.6479585693 -0.631690105
623 1 319.0091649822 1.765307034 -0.6407193939
624 1 303.7211972013 8.826527243 -0.6073412212
625 1 308.3075912296 7.9438757079 -0.6158381705
626 1 312.8939886183 7.061220209 -0.6245428292
627 1 317.4803812215 6.1785686737 -0.6334505988
628 1 311.3652046913 11.4744858123 -0.6173200576
629 1 315.9516017886 10.5918303136 -0.6261025317
630 1 320.5379941006 9.7091787783 -0.6350919765
631 1 321.0442042239 0.0 -1.599558364
632 1 324.1018161042 3.5306101046 -1.6014851313
633 1 321.5605215376 2.6479585693 0.3089627032
634 1 328.6882110481 2.6479585693 -1.6108829309
635 1 326.1469127156 1.765307034 0.2996544955
636 1 333.2746012794 1.765307034 -1.6204651889
637 1 330.7333073266 0.8826515353 0.2901610806
638 1 337.8609949333 0.8826515353 -1.6302270363
639 1 335.3196972353 0.0 0.2804872126
640 1 322.5730330613 7.9438757079 -1.5940116959
641 1 327.1594283798 7.061220209 -1.603304507
642 1 324.6181297039 6.1785686737 0.3071356397
643 1 331.745818944 6.1785686737 -1.6127892978
644 1 329.2045246687 5.2959171386 0.2977438114