# LAMMPS data file written by OVITO Basic 3.3.0
80352 atoms
1 atom types
0.0 398.9869537361 xlo xhi
0.0 388.3029755587 ylo yhi
0.0 9.3411178108 zlo zhi

Masses

1 95.96  # Mo

Atoms  # atomic

1 1 0.0 0.0 0.0
2 1 0.0 4.0448220184 2.3352794553
3 1 1.9136052633 2.6965486538 0.0
4 1 1.9136052633 6.7413706722 2.3352794553
5 1 0.9568026369 1.3482733542 2.3352794553
6 1 0.9568026369 5.393097318 0.0
7 1 2.8704079002 0.0 0.0
8 1 2.8704079002 4.0448220184 2.3352794553
9 1 4.7840171583 2.6965486538 0.0
10 1 4.7840171583 6.7413706722 2.3352794553
11 1 3.8272145214 1.3482733542 2.3352794553
12 1 3.8272145214 5.393097318 0.0
13 1 5.7408197951 0.0 0.0
14 1 5.7408197951 4.0448220184 2.3352794553
15 1 7.6544250585 2.6965486538 0.0
16 1 7.6544250585 6.7413706722 2.3352794553
17 1 6.6976224319 1.3482733542 2.3352794553
18 1 6.6976224319 5.393097318 0.0
19 1 8.6112276952 0.0 0.0
20 1 8.6112276952 4.0448220184 2.3352794553
21 1 10.5248369533 2.6965486538 0.0
22 1 10.5248369533 6.7413706722 2.3352794553
23 1 9.5680343165 1.3482733542 2.3352794553
24 1 9.5680343165 5.393097318 0.0
25 1 11.4816395902 0.0 0.0
26 1 11.4816395902 4.0448220184 2.3352794553
27 1 13.3952448535 2.6965486538 0.0
28 1 13.3952448535 6.7413706722 2.3352794553
29 1 12.438442227 1.3482733542 2.3352794553
30 1 12.438442227 5.393097318 0.0
31 1 14.3520474904 0.0 0.0
32 1 14.3520474904 4.0448220184 2.3352794553
33 1 16.2656567484 2.6965486538 0.0
34 1 16.2656567484 6.7413706722 2.3352794553
35 1 15.3088501272 1.3482733542 2.3352794553
36 1 15.3088501272 5.393097318 0.0
37 1 17.2224593853 0.0 0.0
38 1 17.2224593853 4.0448220184 2.3352794553
39 1 19.1360646486 2.6965486538 0.0
40 1 19.1360646486 6.7413706722 2.3352794553
41 1 18.1792620118 1.3482733542 2.3352794553
42 1 18.1792620118 5.393097318 0.0
43 1 20.0928672855 0.0 0.0
44 1 20.0928672855 4.0448220184 2.3352794553
45 1 22.0064765436 2.6965486538 0.0
46 1 22.0064765436 6.7413706722 2.3352794553
47 1 21.0496699223 1.3482733542 2.3352794553
48 1 21.0496699223 5.393097318 0.0
49 1 22.9632791803 0.0 0.0
50 1 22.9632791803 4.0448220184 2.3352794553
51 1 24.8768844437 2.6965486538 0.0
52 1 24.8768844437 6.7413706722 2.3352794553
53 1 23.9200818069 1.3482733542 2.3352794553
54 1 23.9200818069 5.393097318 0.0
55 1 25.8336870805 0.0 0.0
56 1 25.8336870805 4.0448220184 2.3352794553
57 1 27.7472923438 2.6965486538 0.0
58 1 27.7472923438 6.7413706722 2.3352794553
59 1 26.790489707 1.3482733542 2.3352794553
60 1 26.790489707 5.393097318 0.0
61 1 28.7040989651 0.0 0.0
62 1 28.7040989651 4.0448220184 2.3352794553
63 1 30.6177042388 2.6965486538 0.0
64 1 30.6177042388 6.7413706722 2.3352794553
65 1 29.6609016019 1.3482733542 2.3352794553
66 1 29.6609016019 5.393097318 0.0
67 1 31.5745068757 0.0 0.0
68 1 31.5745068757 4.0448220184 2.3352794553
69 1 33.488112139 2.6965486538 0.0
70 1 33.488112139 6.7413706722 2.3352794553
71 1 32.5313095021 1.3482733542 2.3352794553
72 1 32.5313095021 5.393097318 0.0
73 1 34.4449187602 0.0 0.0
74 1 34.4449187602 4.0448220184 2.3352794553
75 1 36.3585240339 2.6965486538 0.0
76 1 36.3585240339 6.7413706722 2.3352794553
77 1 35.4017213971 1.3482733542 2.3352794553
78 1 35.4017213971 5.393097318 0.0
79 1 37.3153266707 0.0 0.0
80 1 37.3153266707 4.0448220184 2.3352794553
81 1 39.228931934 2.6965486538 0.0
82 1 39.228931934 6.7413706722 2.3352794553
83 1 38.2721292973 1.3482733542 2.3352794553
84 1 38.2721292973 5.393097318 0.0
85 1 40.1857345709 0.0 0.0
86 1 40.1857345709 4.0448220184 2.3352794553
87 1 42.099343829 2.6965486538 0.0
88 1 42.099343829 6.7413706722 2.3352794553
89 1 41.1425411921 1.3482733542 2.3352794553
90 1 41.1425411921 5.393097318 0.0
91 1 43.0561464554 0.0 0.0
92 1 43.0561464554 4.0448220184 2.3352794553
93 1 44.9697517292 2.6965486538 0.0
94 1 44.9697517292 6.7413706722 2.3352794553
95 1 44.0129490923 1.3482733542 2.3352794553
96 1 44.0129490923 5.393097318 0.0
97 1 45.926554366 0.0 0.0
98 1 45.926554366 4.0448220184 2.3352794553
99 1 47.8401636241 2.6965486538 0.0
100 1 47.8401636241 6.7413706722 2.3352794553
101 1 46.8833609873 1.3482733542 2.3352794553
102 1 46.8833609873 5.393097318 0.0
103 1 48.7969662506 0.0 0.0
104 1 48.7969662506 4.0448220184 2.3352794553
105 1 50.7105715243 2.6965486538 0.0
106 1 50.7105715243 6.7413706722 2.3352794553
107 1 49.7537688874 1.3482733542 2.3352794553
108 1 49.7537688874 5.393097318 0.0
109 1 51.6673741507 0.0 0.0
110 1 51.6673741507 4.0448220184 2.3352794553
111 1 53.5809834088 2.6965486538 0.0
112 1 53.5809834088 6.7413706722 2.3352794553
113 1 52.6241767875 1.3482733542 2.3352794553
114 1 52.6241767875 5.393097318 0.0
115 1 54.5377860457 0.0 0.0
116 1 54.5377860457 4.0448220184 2.3352794553
117 1 56.4513913193 2.6965486538 0.0
118 1 56.4513913193 6.7413706722 2.3352794553
119 1 55.4945886825 1.3482733542 2.3352794553
120 1 55.4945886825 5.393097318 0.0
121 1 57.4081939458 0.0 0.0
122 1 57.4081939458 4.0448220184 2.3352794553
123 1 59.3218032039 2.6965486538 0.0
124 1 59.3218032039 6.7413706722 2.3352794553
125 1 58.3649965826 1.3482733542 2.3352794553
126 1 58.3649965826 5.393097318 0.0
127 1 60.2786058407 0.0 0.0
128 1 60.2786058407 4.0448220184 2.3352794553
129 1 62.1922111145 2.6965486538 0.0
130 1 62.1922111145 6.7413706722 2.3352794553
131 1 61.2354084776 1.3482733542 2.3352794553
132 1 61.2354084776 5.393097318 0.0
133 1 63.1490137409 0.0 0.0
134 1 63.1490137409 4.0448220184 2.3352794553
135 1 65.0626190147 2.6965486538 0.0
136 1 65.0626190147 6.7413706722 2.3352794553
137 1 64.1058163778 1.3482733542 2.3352794553
138 1 64.1058163778 5.393097318 0.0
139 1 66.0194256359 0.0 0.0
140 1 66.0194256359 4.0448220184 2.3352794553
141 1 67.9330308992 2.6965486538 0.0
142 1 67.9330308992 6.7413706722 2.3352794553
143 1 66.9762282727 1.3482733542 2.3352794553
144 1 66.9762282727 5.393097318 0.0
145 1 68.8898335359 0.0 0.0
146 1 68.8898335359 4.0448220184 2.3352794553
147 1 70.8034388097 2.6965486538 0.0
148 1 70.8034388097 6.7413706722 2.3352794553
149 1 69.8466361728 1.3482733542 2.3352794553
150 1 69.8466361728 5.393097318 0.0
151 1 71.7602454309 0.0 0.0
152 1 71.7602454309 4.0448220184 2.3352794553
153 1 73.6738506942 2.6965486538 0.0
154 1 73.6738506942 6.7413706722 2.3352794553
155 1 72.7170480678 1.3482733542 2.3352794553
156 1 72.7170480678 5.393097318 0.0
157 1 74.6306533311 0.0 0.0
158 1 74.6306533311 4.0448220184 2.3352794553
159 1 76.5442586048 2.6965486538 0.0
160 1 76.5442586048 6.7413706722 2.3352794553
161 1 75.587455968 1.3482733542 2.3352794553
162 1 75.587455968 5.393097318 0.0
163 1 77.5010612313 0.0 0.0
164 1 77.5010612313 4.0448220184 2.3352794553
165 1 79.4146704894 2.6965486538 0.0
166 1 79.4146704894 6.7413706722 2.3352794553
167 1 78.4578678525 1.3482733542 2.3352794553
168 1 78.4578678525 5.393097318 0.0
169 1 80.3714731262 0.0 0.0
170 1 80.3714731262 4.0448220184 2.3352794553
171 1 82.2850783895 2.6965486538 0.0
172 1 82.2850783895 6.7413706722 2.3352794553
173 1 81.3282757631 1.3482733542 2.3352794553
174 1 81.3282757631 5.393097318 0.0
175 1 83.2418810263 0.0 0.0
176 1 83.2418810263 4.0448220184 2.3352794553
177 1 85.1554902845 2.6965486538 0.0
178 1 85.1554902845 6.7413706722 2.3352794553
179 1 84.1986876476 1.3482733542 2.3352794553
180 1 84.1986876476 5.393097318 0.0
181 1 86.1122929213 0.0 0.0
182 1 86.1122929213 4.0448220184 2.3352794553
183 1 88.0258981846 2.6965486538 0.0
184 1 88.0258981846 6.7413706722 2.3352794553
185 1 87.0690955581 1.3482733542 2.3352794553
186 1 87.0690955581 5.393097318 0.0
187 1 88.9827008214 0.0 0.0
188 1 88.9827008214 4.0448220184 2.3352794553
189 1 90.8963100795 2.6965486538 0.0
190 1 90.8963100795 6.7413706722 2.3352794553
191 1 89.9395034583 1.3482733542 2.3352794553
192 1 89.9395034583 5.393097318 0.0
193 1 91.8531127164 0.0 0.0
194 1 91.8531127164 4.0448220184 2.3352794553
195 1 93.7667179797 2.6965486538 0.0
196 1 93.7667179797 6.7413706722 2.3352794553
197 1 92.8099153428 1.3482733542 2.3352794553
198 1 92.8099153428 5.393097318 0.0
199 1 94.7235206166 0.0 0.0
200 1 94.7235206166 4.0448220184 2.3352794553
201 1 96.6371298747 2.6965486538 0.0
202 1 96.6371298747 6.7413706722 2.3352794553
203 1 95.6803232533 1.3482733542 2.3352794553
204 1 95.6803232533 5.393097318 0.0
205 1 97.5939325116 0.0 0.0
206 1 97.5939325116 4.0448220184 2.3352794553
207 1 99.5075377747 2.6965486538 0.0
208 1 99.5075377747 6.7413706722 2.3352794553
209 1 98.550735138 1.3482733542 2.3352794553
210 1 98.550735138 5.393097318 0.0
211 1 100.4643404116 0.0 0.0
212 1 100.4643404116 4.0448220184 2.3352794553
213 1 102.3779456749 2.6965486538 0.0
214 1 102.3779456749 6.7413706722 2.3352794553
215 1 101.4211430485 1.3482733542 2.3352794553
216 1 101.4211430485 5.393097318 0.0
217 1 103.3347523066 0.0 0.0
218 1 103.3347523066 4.0448220184 2.3352794553
219 1 105.2483575699 2.6965486538 0.0
220 1 105.2483575699 6.7413706722 2.3352794553
221 1 104.291554933 1.3482733542 2.3352794553
222 1 104.291554933 5.393097318 0.0
223 1 106.2051602068 0.0 0.0
224 1 106.2051602068 4.0448220184 2.3352794553
225 1 108.1187654701 2.6965486538 0.0
226 1 108.1187654701 6.7413706722 2.3352794553
227 1 107.1619628332 1.3482733542 2.3352794553
228 1 107.1619628332 5.393097318 0.0
229 1 109.0755681069 0.0 0.0
230 1 109.0755681069 4.0448220184 2.3352794553
231 1 110.989177365 2.6965486538 0.0
232 1 110.989177365 6.7413706722 2.3352794553
233 1 110.0323747282 1.3482733542 2.3352794553
234 1 110.0323747282 5.393097318 0.0
235 1 111.9459800019 0.0 0.0
236 1 111.9459800019 4.0448220184 2.3352794553
237 1 113.8595852651 2.6965486538 0.0
238 1 113.8595852651 6.7413706722 2.3352794553
239 1 112.9027826283 1.3482733542 2.3352794553
240 1 112.9027826283 5.393097318 0.0
241 1 114.816387902 0.0 0.0
242 1 114.816387902 4.0448220184 2.3352794553
243 1 116.7299971601 2.6965486538 0.0
244 1 116.7299971601 6.7413706722 2.3352794553
245 1 115.7731945233 1.3482733542 2.3352794553
246 1 115.7731945233 5.393097318 0.0
247 1 117.6867997865 0.0 0.0
248 1 117.6867997865 4.0448220184 2.3352794553
249 1 119.6004050602 2.6965486538 0.0
250 1 119.6004050602 6.7413706722 2.3352794553
251 1 118.6436024234 1.3482733542 2.3352794553
252 1 118.6436024234 5.393097318 0.0
253 1 120.5572076971 0.0 0.0
254 1 120.5572076971 4.0448220184 2.3352794553
255 1 122.4708169552 2.6965486538 0.0
256 1 122.4708169552 6.7413706722 2.3352794553
257 1 121.5140103236 1.3482733542 2.3352794553
258 1 121.5140103236 5.393097318 0.0
259 1 123.4276195816 0.0 0.0
260 1 123.4276195816 4.0448220184 2.3352794553
261 1 125.3412248554 2.6965486538 0.0
262 1 125.3412248554 6.7413706722 2.3352794553
263 1 124.3844222185 1.3482733542 2.3352794553
264 1 124.3844222185 5.393097318 0.0
265 1 126.2980274921 0.0 0.0
266 1 126.2980274921 4.0448220184 2.3352794553
267 1 128.2116367504 2.6965486538 0.0
268 1 128.2116367504 6.7413706722 2.3352794553
269 1 127.2548301187 1.3482733542 2.3352794553
270 1 127.2548301187 5.393097318 0.0
271 1 129.1684393768 0.0 0.0
272 1 129.1684393768 4.0448220184 2.3352794553
273 1 131.0820446504 2.6965486538 0.0
274 1 131.0820446504 6.7413706722 2.3352794553
275 1 130.1252420135 1.3482733542 2.3352794553
276 1 130.1252420135 5.393097318 0.0
277 1 132.0388472769 0.0 0.0
278 1 132.0388472769 4.0448220184 2.3352794553
279 1 133.9524525506 2.6965486538 0.0
280 1 133.9524525506 6.7413706722 2.3352794553
281 1 132.9956499137 1.3482733542 2.3352794553
282 1 132.9956499137 5.393097318 0.0
283 1 134.9092591718 0.0 0.0
284 1 134.9092591718 4.0448220184 2.3352794553
285 1 136.8228644456 2.6965486538 0.0
286 1 136.8228644456 6.7413706722 2.3352794553
287 1 135.8660618087 1.3482733542 2.3352794553
288 1 135.8660618087 5.393097318 0.0
289 1 137.779667072 0.0 0.0
290 1 137.779667072 4.0448220184 2.3352794553
291 1 139.6932723457 2.6965486538 0.0
292 1 139.6932723457 6.7413706722 2.3352794553
293 1 138.7364697089 1.3482733542 2.3352794553
294 1 138.7364697089 5.393097318 0.0
295 1 140.650078967 0.0 0.0
296 1 140.650078967 4.0448220184 2.3352794553
297 1 142.5636842303 2.6965486538 0.0
298 1 142.5636842303 6.7413706722 2.3352794553
299 1 141.6068816038 1.3482733542 2.3352794553
300 1 141.6068816038 5.393097318 0.0
301 1 143.5204868671 0.0 0.0
302 1 143.5204868671 4.0448220184 2.3352794553
303 1 145.4340921408 2.6965486538 0.0
304 1 145.4340921408 6.7413706722 2.3352794553
305 1 144.4772895039 1.3482733542 2.3352794553
306 1 144.4772895039 5.393097318 0.0
307 1 146.3908947672 0.0 0.0
308 1 146.3908947672 4.0448220184 2.3352794553
309 1 148.3045040253 2.6965486538 0.0
310 1 148.3045040253 6.7413706722 2.3352794553
311 1 147.3477013989 1.3482733542 2.3352794553
312 1 147.3477013989 5.393097318 0.0
313 1 149.2613066622 0.0 0.0
314 1 149.2613066622 4.0448220184 2.3352794553
315 1 151.1749119359 2.6965486538 0.0
316 1 151.1749119359 6.7413706722 2.3352794553
317 1 150.218109299 1.3482733542 2.3352794553
318 1 150.218109299 5.393097318 0.0
319 1 152.1317145624 0.0 0.0
320 1 152.1317145624 4.0448220184 2.3352794553
321 1 154.0453238205 2.6965486538 0.0
322 1 154.0453238205 6.7413706722 2.3352794553
323 1 153.088521194 1.3482733542 2.3352794553
324 1 153.088521194 5.393097318 0.0
325 1 155.0021264573 0.0 0.0
326 1 155.0021264573 4.0448220184 2.3352794553
327 1 156.9157317206 2.6965486538 0.0
328 1 156.9157317206 6.7413706722 2.3352794553
329 1 155.9589290942 1.3482733542 2.3352794553
330 1 155.9589290942 5.393097318 0.0
331 1 157.8725343575 0.0 0.0
332 1 157.8725343575 4.0448220184 2.3352794553
333 1 159.7861436156 2.6965486538 0.0
334 1 159.7861436156 6.7413706722 2.3352794553
335 1 158.8293369943 1.3482733542 2.3352794553
336 1 158.8293369943 5.393097318 0.0
337 1 160.7429462524 0.0 0.0
338 1 160.7429462524 4.0448220184 2.3352794553
339 1 162.6565515157 2.6965486538 0.0
340 1 162.6565515157 6.7413706722 2.3352794553
341 1 161.6997488892 1.3482733542 2.3352794553
342 1 161.6997488892 5.393097318 0.0
343 1 163.6133541525 0.0 0.0
344 1 163.6133541525 4.0448220184 2.3352794553
345 1 165.5269634106 2.6965486538 0.0
346 1 165.5269634106 6.7413706722 2.3352794553
347 1 164.5701567894 1.3482733542 2.3352794553
348 1 164.5701567894 5.393097318 0.0
349 1 166.4837660475 0.0 0.0
350 1 166.4837660475 4.0448220184 2.3352794553
351 1 168.3973713108 2.6965486538 0.0
352 1 168.3973713108 6.7413706722 2.3352794553
353 1 167.4405686844 1.3482733542 2.3352794553
354 1 167.4405686844 5.393097318 0.0
355 1 169.3541739477 0.0 0.0
356 1 169.3541739477 4.0448220184 2.3352794553
357 1 171.267779211 2.6965486538 0.0
358 1 171.267779211 6.7413706722 2.3352794553
359 1 170.3109765845 1.3482733542 2.3352794553
360 1 170.3109765845 5.393097318 0.0
361 1 172.2245858426 0.0 0.0
362 1 172.2245858426 4.0448220184 2.3352794553
363 1 174.1381911059 2.6965486538 0.0
364 1 174.1381911059 6.7413706722 2.3352794553
365 1 173.1813884691 1.3482733542 2.3352794553
366 1 173.1813884691 5.393097318 0.0
367 1 175.0949937427 0.0 0.0
368 1 175.0949937427 4.0448220184 2.3352794553
369 1 177.008599006 2.6965486538 0.0
370 1 177.008599006 6.7413706722 2.3352794553
371 1 176.0517963796 1.3482733542 2.3352794553
372 1 176.0517963796 5.393097318 0.0
373 1 177.9654056377 0.0 0.0
374 1 177.9654056377 4.0448220184 2.3352794553
375 1 179.879010901 2.6965486538 0.0
376 1 179.879010901 6.7413706722 2.3352794553
377 1 178.9222082641 1.3482733542 2.3352794553
378 1 178.9222082641 5.393097318 0.0
379 1 180.8358135379 0.0 0.0
380 1 180.8358135379 4.0448220184 2.3352794553
381 1 182.7494188012 2.6965486538 0.0
382 1 182.7494188012 6.7413706722 2.3352794553
383 1 181.7926161643 1.3482733542 2.3352794553
384 1 181.7926161643 5.393097318 0.0
385 1 183.706221438 0.0 0.0
386 1 183.706221438 4.0448220184 2.3352794553
387 1 185.6198306961 2.6965486538 0.0
388 1 185.6198306961 6.7413706722 2.3352794553
389 1 184.6630280593 1.3482733542 2.3352794553
390 1 184.6630280593 5.393097318 0.0
391 1 186.576633333 0.0 0.0
392 1 186.576633333 4.0448220184 2.3352794553
393 1 188.4902385963 2.6965486538 0.0
394 1 188.4902385963 6.7413706722 2.3352794553
395 1 187.5334359594 1.3482733542 2.3352794553
396 1 187.5334359594 5.393097318 0.0
397 1 189.4470412331 0.0 0.0
398 1 189.4470412331 4.0448220184 2.3352794553
399 1 191.3606504912 2.6965486538 0.0
400 1 191.3606504912 6.7413706722 2.3352794553
401 1 190.4038478544 1.3482733542 2.3352794553
402 1 190.4038478544 5.393097318 0.0
403 1 192.317453128 0.0 0.0
404 1 192.317453128 4.0448220184 2.3352794553
405 1 194.2310583913 2.6965486538 0.0
406 1 194.2310583913 6.7413706722 2.3352794553
407 1 193.2742557545 1.3482733542 2.3352794553
408 1 193.2742557545 5.393097318 0.0
409 1 195.1878610282 0.0 0.0
410 1 195.1878610282 4.0448220184 2.3352794553
411 1 197.1014702863 2.6965486538 0.0
412 1 197.1014702863 6.7413706722 2.3352794553
413 1 196.1446636546 1.3482733542 2.3352794553
414 1 196.1446636546 5.393097318 0.0
415 1 198.0582729127 0.0 0.0
416 1 198.0582729127 4.0448220184 2.3352794553
417 1 199.9718781865 2.6965486538 0.0
418 1 199.9718781865 6.7413706722 2.3352794553
419 1 199.0150755496 1.3482733542 2.3352794553
420 1 199.0150755496 5.393097318 0.0
421 1 200.9286808233 0.0 0.0
422 1 200.9286808233 4.0448220184 2.3352794553
423 1 202.8422900814 2.6965486538 0.0
424 1 202.8422900814 6.7413706722 2.3352794553
425 1 201.8854834498 1.3482733542 2.3352794553
426 1 201.8854834498 5.393097318 0.0
427 1 203.7990927079 0.0 0.0
428 1 203.7990927079 4.0448220184 2.3352794553
429 1 205.7126979815 2.6965486538 0.0
430 1 205.7126979815 6.7413706722 2.3352794553
431 1 204.7558953448 1.3482733542 2.3352794553
432 1 204.7558953448 5.393097318 0.0
433 1 206.6695006079 0.0 0.0
434 1 206.6695006079 4.0448220184 2.3352794553
435 1 208.5831058817 2.6965486538 0.0
436 1 208.5831058817 6.7413706722 2.3352794553
437 1 207.6263032448 1.3482733542 2.3352794553
438 1 207.6263032448 5.393097318 0.0
439 1 209.5399125029 0.0 0.0
440 1 209.5399125029 4.0448220184 2.3352794553
441 1 211.4535177767 2.6965486538 0.0
442 1 211.4535177767 6.7413706722 2.3352794553
443 1 210.4967151398 1.3482733542 2.3352794553
444 1 210.4967151398 5.393097318 0.0
445 1 212.4103204031 0.0 0.0
446 1 212.4103204031 4.0448220184 2.3352794553
447 1 214.3239256768 2.6965486538 0.0
448 1 214.3239256768 6.7413706722 2.3352794553
449 1 213.36712304 1.3482733542 2.3352794553
450 1 213.36712304 5.393097318 0.0
451 1 215.2807322981 0.0 0.0
452 1 215.2807322981 4.0448220184 2.3352794553
453 1 217.1943375718 2.6965486538 0.0
454 1 217.1943375718 6.7413706722 2.3352794553
455 1 216.2375349349 1.3482733542 2.3352794553
456 1 216.2375349349 5.393097318 0.0
457 1 218.1511401982 0.0 0.0
458 1 218.1511401982 4.0448220184 2.3352794553
459 1 220.0647454719 2.6965486538 0.0
460 1 220.0647454719 6.7413706722 2.3352794553
461 1 219.1079428351 1.3482733542 2.3352794553
462 1 219.1079428351 5.393097318 0.0
463 1 221.0215480983 0.0 0.0
464 1 221.0215480983 4.0448220184 2.3352794553
465 1 222.9351573565 2.6965486538 0.0
466 1 222.9351573565 6.7413706722 2.3352794553
467 1 221.97835473 1.3482733542 2.3352794553
468 1 221.97835473 5.393097318 0.0
469 1 223.8919599933 0.0 0.0
470 1 223.8919599933 4.0448220184 2.3352794553
471 1 225.805565267 2.6965486538 0.0
472 1 225.805565267 6.7413706722 2.3352794553
473 1 224.8487626301 1.3482733542 2.3352794553
474 1 224.8487626301 5.393097318 0.0
475 1 226.7623678934 0.0 0.0
476 1 226.7623678934 4.0448220184 2.3352794553
477 1 228.6759771515 2.6965486538 0.0
478 1 228.6759771515 6.7413706722 2.3352794553
479 1 227.7191745251 1.3482733542 2.3352794553
480 1 227.7191745251 5.393097318 0.0
481 1 229.6327797884 0.0 0.0
482 1 229.6327797884 4.0448220184 2.3352794553
483 1 231.5463850517 2.6965486538 0.0
484 1 231.5463850517 6.7413706722 2.3352794553
485 1 230.5895824253 1.3482733542 2.3352794553
486 1 230.5895824253 5.393097318 0.0
487 1 232.5031876886 0.0 0.0
488 1 232.5031876886 4.0448220184 2.3352794553
489 1 234.4167969467 2.6965486538 0.0
490 1 234.4167969467 6.7413706722 2.3352794553
491 1 233.4599903253 1.3482733542 2.3352794553
492 1 233.4599903253 5.393097318 0.0
493 1 235.3735995836 0.0 0.0
494 1 235.3735995836 4.0448220184 2.3352794553
495 1 237.2872048467 2.6965486538 0.0
496 1 237.2872048467 6.7413706722 2.3352794553
497 1 236.3304022203 1.3482733542 2.3352794553
498 1 236.3304022203 5.393097318 0.0
499 1 238.2440074836 0.0 0.0
500 1 238.2440074836 4.0448220184 2.3352794553
501 1 240.1576167417 2.6965486538 0.0
502 1 240.1576167417 6.7413706722 2.3352794553
503 1 239.2008101205 1.3482733542 2.3352794553
504 1 239.2008101205 5.393097318 0.0
505 1 241.1144193786 0.0 0.0
506 1 241.1144193786 4.0448220184 2.3352794553
507 1 243.0280246419 2.6965486538 0.0
508 1 243.0280246419 6.7413706722 2.3352794553
509 1 242.0712220155 1.3482733542 2.3352794553
510 1 242.0712220155 5.393097318 0.0
511 1 243.9848272788 0.0 0.0
512 1 243.9848272788 4.0448220184 2.3352794553
513 1 245.8984325421 2.6965486538 0.0
514 1 245.8984325421 6.7413706722 2.3352794553
515 1 244.9416299156 1.3482733542 2.3352794553
516 1 244.9416299156 5.393097318 0.0
517 1 246.8552391737 0.0 0.0
518 1 246.8552391737 4.0448220184 2.3352794553
519 1 248.768844437 2.6965486538 0.0
520 1 248.768844437 6.7413706722 2.3352794553
521 1 247.8120418002 1.3482733542 2.3352794553
522 1 247.8120418002 5.393097318 0.0
523 1 249.7256470739 0.0 0.0
524 1 249.7256470739 4.0448220184 2.3352794553
525 1 251.6392523371 2.6965486538 0.0
526 1 251.6392523371 6.7413706722 2.3352794553
527 1 250.6824497107 1.3482733542 2.3352794553
528 1 250.6824497107 5.393097318 0.0
529 1 252.5960589688 0.0 0.0
530 1 252.5960589688 4.0448220184 2.3352794553
531 1 254.5096642321 2.6965486538 0.0
532 1 254.5096642321 6.7413706722 2.3352794553
533 1 253.5528615953 1.3482733542 2.3352794553
534 1 253.5528615953 5.393097318 0.0
535 1 255.4664668689 0.0 0.0
536 1 255.4664668689 4.0448220184 2.3352794553
537 1 257.3800721322 2.6965486538 0.0
538 1 257.3800721322 6.7413706722 2.3352794553
539 1 256.4232695058 1.3482733542 2.3352794553
540 1 256.4232695058 5.393097318 0.0
541 1 258.3368747691 0.0 0.0
542 1 258.3368747691 4.0448220184 2.3352794553
543 1 260.2504840272 2.6965486538 0.0
544 1 260.2504840272 6.7413706722 2.3352794553
545 1 259.2936813903 1.3482733542 2.3352794553
546 1 259.2936813903 5.393097318 0.0
547 1 261.2072866641 0.0 0.0
548 1 261.2072866641 4.0448220184 2.3352794553
549 1 263.1208919274 2.6965486538 0.0
550 1 263.1208919274 6.7413706722 2.3352794553
551 1 262.1640892905 1.3482733542 2.3352794553
552 1 262.1640892905 5.393097318 0.0
553 1 264.0776945641 0.0 0.0
554 1 264.0776945641 4.0448220184 2.3352794553
555 1 265.9913038224 2.6965486538 0.0
556 1 265.9913038224 6.7413706722 2.3352794553
557 1 265.0345011855 1.3482733542 2.3352794553
558 1 265.0345011855 5.393097318 0.0
559 1 266.9481064591 0.0 0.0
560 1 266.9481064591 4.0448220184 2.3352794553
561 1 268.8617117224 2.6965486538 0.0
562 1 268.8617117224 6.7413706722 2.3352794553
563 1 267.9049090856 1.3482733542 2.3352794553
564 1 267.9049090856 5.393097318 0.0
565 1 269.8185143593 0.0 0.0
566 1 269.8185143593 4.0448220184 2.3352794553
567 1 271.7321236174 2.6965486538 0.0
568 1 271.7321236174 6.7413706722 2.3352794553
569 1 270.7753169857 1.3482733542 2.3352794553
570 1 270.7753169857 5.393097318 0.0
571 1 272.6889262438 0.0 0.0
572 1 272.6889262438 4.0448220184 2.3352794553
573 1 274.6025315176 2.6965486538 0.0
574 1 274.6025315176 6.7413706722 2.3352794553
575 1 273.6457288807 1.3482733542 2.3352794553
576 1 273.6457288807 5.393097318 0.0
577 1 275.5593341544 0.0 0.0
578 1 275.5593341544 4.0448220184 2.3352794553
579 1 277.4729434125 2.6965486538 0.0
580 1 277.4729434125 6.7413706722 2.3352794553
581 1 276.5161367809 1.3482733542 2.3352794553
582 1 276.5161367809 5.393097318 0.0
583 1 278.429746039 0.0 0.0
584 1 278.429746039 4.0448220184 2.3352794553
585 1 280.3433513127 2.6965486538 0.0
586 1 280.3433513127 6.7413706722 2.3352794553
587 1 279.3865486758 1.3482733542 2.3352794553
588 1 279.3865486758 5.393097318 0.0
589 1 281.3001539495 0.0 0.0
590 1 281.3001539495 4.0448220184 2.3352794553
591 1 283.2137592128 2.6965486538 0.0
592 1 283.2137592128 6.7413706722 2.3352794553
593 1 282.2569565759 1.3482733542 2.3352794553
594 1 282.2569565759 5.393097318 0.0
595 1 284.1705658341 0.0 0.0
596 1 284.1705658341 4.0448220184 2.3352794553
597 1 286.0841711077 2.6965486538 0.0
598 1 286.0841711077 6.7413706722 2.3352794553
599 1 285.1273684709 1.3482733542 2.3352794553
600 1 285.1273684709 5.393097318 0.0
601 1 287.0409737342 0.0 0.0
602 1 287.0409737342 4.0448220184 2.3352794553
603 1 288.9545790079 2.6965486538 0.0
604 1 288.9545790079 6.7413706722 2.3352794553
605 1 287.9977763711 1.3482733542 2.3352794553
606 1 287.9977763711 5.393097318 0.0
607 1 289.9113856291 0.0 0.0
608 1 289.9113856291 4.0448220184 2.3352794553
609 1 291.8249909029 2.6965486538 0.0
610 1 291.8249909029 6.7413706722 2.3352794553
611 1 290.868188266 1.3482733542 2.3352794553
612 1 290.868188266 5.393097318 0.0
613 1 292.7817935293 0.0 0.0
614 1 292.7817935293 4.0448220184 2.3352794553
615 1 294.695398803 2.6965486538 0.0
616 1 294.695398803 6.7413706722 2.3352794553
617 1 293.7385961662 1.3482733542 2.3352794553
618 1 293.7385961662 5.393097318 0.0
619 1 295.6522014295 0.0 0.0
620 1 295.6522014295 4.0448220184 2.3352794553
621 1 297.5658106876 2.6965486538 0.0
622 1 297.5658106876 6.7413706722 2.3352794553
623 1 296.6090080612 1.3482733542 2.3352794553
624 1 296.6090080612 5.393097318 0.0
625 1 298.5226133244 0.0 0.0
626 1 298.5226133244 4.0448220184 2.3352794553
627 1 300.4362185981 2.6965486538 0.0
628 1 300.4362185981 6.7413706722 2.3352794553
629 1 299.4794159612 1.3482733542 2.3352794553
630 1 299.4794159612 5.393097318 0.0
631 1 301.3930212245 0.0 0.0
632 1 301.3930212245 4.0448220184 2.3352794553
633 1 303.3066304826 2.6965486538 0.0
634 1 303.3066304826 6.7413706722 2.3352794553
635 1 302.3498238614 1.3482733542 2.3352794553
636 1 302.3498238614 5.393097318 0.0
637 1 304.2634331195 0.0 0.0
638 1 304.2634331195 4.0448220184 2.3352794553
639 1 306.1770383932 2.6965486538 0.0
640 1 306.1770383932 6.7413706722 2.3352794553
641 1 305.2202357564 1.3482733542 2.3352794553
642 1 305.2202357564 5.393097318 0.0
643 1 307.1338410197 0.0 0.0
644 1 307.1338410197 4.0448220184 2.3352794553
645 1 309.0474502778 2.6965486538 0.0
646 1 309.0474502778 6.7413706722 2.3352794553
647 1 308.0906436565 1.3482733542 2.3352794553
648 1 308.0906436565 5.393097318 0.0
649 1 310.0042529146 0.0 0.0
650 1 310.0042529146 4.0448220184 2.3352794553
651 1 311.917858178 2.6965486538 0.0
652 1 311.917858178 6.7413706722 2.3352794553
653 1 310.9610555515 1.3482733542 2.3352794553
654 1 310.9610555515 5.393097318 0.0
655 1 312.8746608147 0.0 0.0
656 1 312.8746608147 4.0448220184 2.3352794553
657 1 314.7882660885 2.6965486538 0.0
658 1 314.7882660885 6.7413706722 2.3352794553
659 1 313.8314634516 1.3482733542 2.3352794553
660 1 313.8314634516 5.393097318 0.0
661 1 315.7450727097 0.0 0.0
662 1 315.7450727097 4.0448220184 2.3352794553
663 1 317.658677973 2.6965486538 0.0
664 1 317.658677973 6.7413706722 2.3352794553
665 1 316.7018753465 1.3482733542 2.3352794553
666 1 316.7018753465 5.393097318 0.0
667 1 318.6154806099 0.0 0.0
668 1 318.6154806099 4.0448220184 2.3352794553
669 1 320.5290858836 2.6965486538 0.0
670 1 320.5290858836 6.7413706722 2.3352794553
671 1 319.5722832467 1.3482733542 2.3352794553
672 1 319.5722832467 5.393097318 0.0
673 1 321.4858925048 0.0 0.0
674 1 321.4858925048 4.0448220184 2.3352794553
675 1 323.3994977681 2.6965486538 0.0
676 1 323.3994977681 6.7413706722 2.3352794553
677 1 322.4426951313 1.3482733542 2.3352794553
678 1 322.4426951313 5.393097318 0.0
679 1 324.356300405 0.0 0.0
680 1 324.356300405 4.0448220184 2.3352794553
681 1 326.2699056683 2.6965486538 0.0
682 1 326.2699056683 6.7413706722 2.3352794553
683 1 325.3131030418 1.3482733542 2.3352794553
684 1 325.3131030418 5.393097318 0.0
685 1 327.2267083051 0.0 0.0
686 1 327.2267083051 4.0448220184 2.3352794553
687 1 329.1403175632 2.6965486538 0.0
688 1 329.1403175632 6.7413706722 2.3352794553
689 1 328.1835149264 1.3482733542 2.3352794553
690 1 328.1835149264 5.393097318 0.0
691 1 330.0971202 0.0 0.0
692 1 330.0971202 4.0448220184 2.3352794553
693 1 332.0107254633 2.6965486538 0.0
694 1 332.0107254633 6.7413706722 2.3352794553
695 1 331.0539228369 1.3482733542 2.3352794553
696 1 331.0539228369 5.393097318 0.0
697 1 332.9675281002 0.0 0.0
698 1 332.9675281002 4.0448220184 2.3352794553
699 1 334.8811373583 2.6965486538 0.0
700 1 334.8811373583 6.7413706722 2.3352794553
701 1 333.9243347214 1.3482733542 2.3352794553
702 1 333.9243347214 5.393097318 0.0
703 1 335.8379399952 0.0 0.0
704 1 335.8379399952 4.0448220184 2.3352794553
705 1 337.7515452585 2.6965486538 0.0
706 1 337.7515452585 6.7413706722 2.3352794553
707 1 336.7947426216 1.3482733542 2.3352794553
708 1 336.7947426216 5.393097318 0.0
709 1 338.7083478954 0.0 0.0
710 1 338.7083478954 4.0448220184 2.3352794553
711 1 340.6219571534 2.6965486538 0.0
712 1 340.6219571534 6.7413706722 2.3352794553
713 1 339.6651505321 1.3482733542 2.3352794553
714 1 339.6651505321 5.393097318 0.0
715 1 341.5787597903 0.0 0.0
716 1 341.5787597903 4.0448220184 2.3352794553
717 1 343.4923650535 2.6965486538 0.0
718 1 343.4923650535 6.7413706722 2.3352794553
719 1 342.5355624168 1.3482733542 2.3352794553
720 1 342.5355624168 5.393097318 0.0
721 1 344.4491676904 0.0 0.0
722 1 344.4491676904 4.0448220184 2.3352794553
723 1 346.3627769485 2.6965486538 0.0
724 1 346.3627769485 6.7413706722 2.3352794553
725 1 345.4059703273 1.3482733542 2.3352794553
726 1 345.4059703273 5.393097318 0.0
727 1 347.3195795853 0.0 0.0
728 1 347.3195795853 4.0448220184 2.3352794553
729 1 349.2331848487 2.6965486538 0.0
730 1 349.2331848487 6.7413706722 2.3352794553
731 1 348.2763822118 1.3482733542 2.3352794553
732 1 348.2763822118 5.393097318 0.0
733 1 350.1899874855 0.0 0.0
734 1 350.1899874855 4.0448220184 2.3352794553
735 1 352.1035927488 2.6965486538 0.0
736 1 352.1035927488 6.7413706722 2.3352794553
737 1 351.146790112 1.3482733542 2.3352794553
738 1 351.146790112 5.393097318 0.0
739 1 353.0603993701 0.0 0.0
740 1 353.0603993701 4.0448220184 2.3352794553