# LAMMPS data file written by OVITO Basic 3.3.0
80352 atoms
1 atom types
0.0 365.526649109 xlo xhi
0.0 355.7386630463 ylo yhi
0.0 8.5577422027 zlo zhi

Masses

1 95.96  # Mo

Atoms  # atomic

1 1 0.0 0.0 0.0
2 1 0.0 3.7056104837 2.1394355531
3 1 1.7531242891 2.4704075768 0.0
4 1 1.7531242891 6.1760180606 2.1394355531
5 1 0.8765621493 1.2352028973 2.1394355531
6 1 0.8765621493 4.9408151632 0.0
7 1 2.6296864384 0.0 0.0
8 1 2.6296864384 3.7056104837 2.1394355531
9 1 4.3828143872 2.4704075768 0.0
10 1 4.3828143872 6.1760180606 2.1394355531
11 1 3.5062522379 1.2352028973 2.1394355531
12 1 3.5062522379 4.9408151632 0.0
13 1 5.2593765365 0.0 0.0
14 1 5.2593765365 3.7056104837 2.1394355531
15 1 7.0125008256 2.4704075768 0.0
16 1 7.0125008256 6.1760180606 2.1394355531
17 1 6.1359386857 1.2352028973 2.1394355531
18 1 6.1359386857 4.9408151632 0.0
19 1 7.8890629748 0.0 0.0
20 1 7.8890629748 3.7056104837 2.1394355531
21 1 9.6421909236 2.4704075768 0.0
22 1 9.6421909236 6.1760180606 2.1394355531
23 1 8.7656287744 1.2352028973 2.1394355531
24 1 8.7656287744 4.9408151632 0.0
25 1 10.5187530729 0.0 0.0
26 1 10.5187530729 3.7056104837 2.1394355531
27 1 12.271877362 2.4704075768 0.0
28 1 12.271877362 6.1760180606 2.1394355531
29 1 11.3953152222 1.2352028973 2.1394355531
30 1 11.3953152222 4.9408151632 0.0
31 1 13.1484395113 0.0 0.0
32 1 13.1484395113 3.7056104837 2.1394355531
33 1 14.9015674601 2.4704075768 0.0
34 1 14.9015674601 6.1760180606 2.1394355531
35 1 14.0250016606 1.2352028973 2.1394355531
36 1 14.0250016606 4.9408151632 0.0
37 1 15.7781296095 0.0 0.0
38 1 15.7781296095 3.7056104837 2.1394355531
39 1 17.5312538985 2.4704075768 0.0
40 1 17.5312538985 6.1760180606 2.1394355531
41 1 16.6546917492 1.2352028973 2.1394355531
42 1 16.6546917492 4.9408151632 0.0
43 1 18.4078160478 0.0 0.0
44 1 18.4078160478 3.7056104837 2.1394355531
45 1 20.1609439967 2.4704075768 0.0
46 1 20.1609439967 6.1760180606 2.1394355531
47 1 19.284378197 1.2352028973 2.1394355531
48 1 19.284378197 4.9408151632 0.0
49 1 21.0375061459 0.0 0.0
50 1 21.0375061459 3.7056104837 2.1394355531
51 1 22.7906304349 2.4704075768 0.0
52 1 22.7906304349 6.1760180606 2.1394355531
53 1 21.9140682857 1.2352028973 2.1394355531
54 1 21.9140682857 4.9408151632 0.0
55 1 23.6671925843 0.0 0.0
56 1 23.6671925843 3.7056104837 2.1394355531
57 1 25.4203168733 2.4704075768 0.0
58 1 25.4203168733 6.1760180606 2.1394355531
59 1 24.543754724 1.2352028973 2.1394355531
60 1 24.543754724 4.9408151632 0.0
61 1 26.2968826728 0.0 0.0
62 1 26.2968826728 3.7056104837 2.1394355531
63 1 28.0500069715 2.4704075768 0.0
64 1 28.0500069715 6.1760180606 2.1394355531
65 1 27.1734448222 1.2352028973 2.1394355531
66 1 27.1734448222 4.9408151632 0.0
67 1 28.9265691208 0.0 0.0
68 1 28.9265691208 3.7056104837 2.1394355531
69 1 30.6796934098 2.4704075768 0.0
70 1 30.6796934098 6.1760180606 2.1394355531
71 1 29.8031312605 1.2352028973 2.1394355531
72 1 29.8031312605 4.9408151632 0.0
73 1 31.5562592094 0.0 0.0
74 1 31.5562592094 3.7056104837 2.1394355531
75 1 33.309383508 2.4704075768 0.0
76 1 33.309383508 6.1760180606 2.1394355531
77 1 32.4328213587 1.2352028973 2.1394355531
78 1 32.4328213587 4.9408151632 0.0
79 1 34.1859456572 0.0 0.0
80 1 34.1859456572 3.7056104837 2.1394355531
81 1 35.9390699463 2.4704075768 0.0
82 1 35.9390699463 6.1760180606 2.1394355531
83 1 35.062507797 1.2352028973 2.1394355531
84 1 35.062507797 4.9408151632 0.0
85 1 36.8156320956 0.0 0.0
86 1 36.8156320956 3.7056104837 2.1394355531
87 1 38.5687600444 2.4704075768 0.0
88 1 38.5687600444 6.1760180606 2.1394355531
89 1 37.6921978951 1.2352028973 2.1394355531
90 1 37.6921978951 4.9408151632 0.0
91 1 39.4453221842 0.0 0.0
92 1 39.4453221842 3.7056104837 2.1394355531
93 1 41.1984464828 2.4704075768 0.0
94 1 41.1984464828 6.1760180606 2.1394355531
95 1 40.3218843335 1.2352028973 2.1394355531
96 1 40.3218843335 4.9408151632 0.0
97 1 42.0750086321 0.0 0.0
98 1 42.0750086321 3.7056104837 2.1394355531
99 1 43.8281365809 2.4704075768 0.0
100 1 43.8281365809 6.1760180606 2.1394355531
101 1 42.9515744316 1.2352028973 2.1394355531
102 1 42.9515744316 4.9408151632 0.0
103 1 44.7046987207 0.0 0.0
104 1 44.7046987207 3.7056104837 2.1394355531
105 1 46.4578230193 2.4704075768 0.0
106 1 46.4578230193 6.1760180606 2.1394355531
107 1 45.58126087 1.2352028973 2.1394355531
108 1 45.58126087 4.9408151632 0.0
109 1 47.3343851591 0.0 0.0
110 1 47.3343851591 3.7056104837 2.1394355531
111 1 49.0875131079 2.4704075768 0.0
112 1 49.0875131079 6.1760180606 2.1394355531
113 1 48.2109473083 1.2352028973 2.1394355531
114 1 48.2109473083 4.9408151632 0.0
115 1 49.9640752572 0.0 0.0
116 1 49.9640752572 3.7056104837 2.1394355531
117 1 51.7171995557 2.4704075768 0.0
118 1 51.7171995557 6.1760180606 2.1394355531
119 1 50.8406374064 1.2352028973 2.1394355531
120 1 50.8406374064 4.9408151632 0.0
121 1 52.5937616955 0.0 0.0
122 1 52.5937616955 3.7056104837 2.1394355531
123 1 54.3468896443 2.4704075768 0.0
124 1 54.3468896443 6.1760180606 2.1394355531
125 1 53.4703238448 1.2352028973 2.1394355531
126 1 53.4703238448 4.9408151632 0.0
127 1 55.2234517936 0.0 0.0
128 1 55.2234517936 3.7056104837 2.1394355531
129 1 56.9765760922 2.4704075768 0.0
130 1 56.9765760922 6.1760180606 2.1394355531
131 1 56.1000139429 1.2352028973 2.1394355531
132 1 56.1000139429 4.9408151632 0.0
133 1 57.853138232 0.0 0.0
134 1 57.853138232 3.7056104837 2.1394355531
135 1 59.6062625306 2.4704075768 0.0
136 1 59.6062625306 6.1760180606 2.1394355531
137 1 58.7297003813 1.2352028973 2.1394355531
138 1 58.7297003813 4.9408151632 0.0
139 1 60.4828283301 0.0 0.0
140 1 60.4828283301 3.7056104837 2.1394355531
141 1 62.2359526192 2.4704075768 0.0
142 1 62.2359526192 6.1760180606 2.1394355531
143 1 61.3593904794 1.2352028973 2.1394355531
144 1 61.3593904794 4.9408151632 0.0
145 1 63.1125147684 0.0 0.0
146 1 63.1125147684 3.7056104837 2.1394355531
147 1 64.865639067 2.4704075768 0.0
148 1 64.865639067 6.1760180606 2.1394355531
149 1 63.9890769177 1.2352028973 2.1394355531
150 1 63.9890769177 4.9408151632 0.0
151 1 65.7422048666 0.0 0.0
152 1 65.7422048666 3.7056104837 2.1394355531
153 1 67.4953291556 2.4704075768 0.0
154 1 67.4953291556 6.1760180606 2.1394355531
155 1 66.6187670159 1.2352028973 2.1394355531
156 1 66.6187670159 4.9408151632 0.0
157 1 68.3718913049 0.0 0.0
158 1 68.3718913049 3.7056104837 2.1394355531
159 1 70.1250156035 2.4704075768 0.0
160 1 70.1250156035 6.1760180606 2.1394355531
161 1 69.2484534542 1.2352028973 2.1394355531
162 1 69.2484534542 4.9408151632 0.0
163 1 71.0015777433 0.0 0.0
164 1 71.0015777433 3.7056104837 2.1394355531
165 1 72.7547056921 2.4704075768 0.0
166 1 72.7547056921 6.1760180606 2.1394355531
167 1 71.8781435428 1.2352028973 2.1394355531
168 1 71.8781435428 4.9408151632 0.0
169 1 73.6312678414 0.0 0.0
170 1 73.6312678414 3.7056104837 2.1394355531
171 1 75.3843921305 2.4704075768 0.0
172 1 75.3843921305 6.1760180606 2.1394355531
173 1 74.5078299908 1.2352028973 2.1394355531
174 1 74.5078299908 4.9408151632 0.0
175 1 76.2609542797 0.0 0.0
176 1 76.2609542797 3.7056104837 2.1394355531
177 1 78.0140822287 2.4704075768 0.0
178 1 78.0140822287 6.1760180606 2.1394355531
179 1 77.1375200793 1.2352028973 2.1394355531
180 1 77.1375200793 4.9408151632 0.0
181 1 78.8906443779 0.0 0.0
182 1 78.8906443779 3.7056104837 2.1394355531
183 1 80.6437686669 2.4704075768 0.0
184 1 80.6437686669 6.1760180606 2.1394355531
185 1 79.7672065272 1.2352028973 2.1394355531
186 1 79.7672065272 4.9408151632 0.0
187 1 81.5203308162 0.0 0.0
188 1 81.5203308162 3.7056104837 2.1394355531
189 1 83.2734587651 2.4704075768 0.0
190 1 83.2734587651 6.1760180606 2.1394355531
191 1 82.3968929656 1.2352028973 2.1394355531
192 1 82.3968929656 4.9408151632 0.0
193 1 84.1500209144 0.0 0.0
194 1 84.1500209144 3.7056104837 2.1394355531
195 1 85.9031452035 2.4704075768 0.0
196 1 85.9031452035 6.1760180606 2.1394355531
197 1 85.0265830541 1.2352028973 2.1394355531
198 1 85.0265830541 4.9408151632 0.0
199 1 86.7797073528 0.0 0.0
200 1 86.7797073528 3.7056104837 2.1394355531
201 1 88.5328353016 2.4704075768 0.0
202 1 88.5328353016 6.1760180606 2.1394355531
203 1 87.656269502 1.2352028973 2.1394355531
204 1 87.656269502 4.9408151632 0.0
205 1 89.4093974509 0.0 0.0
206 1 89.4093974509 3.7056104837 2.1394355531
207 1 91.1625217399 2.4704075768 0.0
208 1 91.1625217399 6.1760180606 2.1394355531
209 1 90.2859595907 1.2352028973 2.1394355531
210 1 90.2859595907 4.9408151632 0.0
211 1 92.0390838892 0.0 0.0
212 1 92.0390838892 3.7056104837 2.1394355531
213 1 93.7922081782 2.4704075768 0.0
214 1 93.7922081782 6.1760180606 2.1394355531
215 1 92.9156460385 1.2352028973 2.1394355531
216 1 92.9156460385 4.9408151632 0.0
217 1 94.6687739873 0.0 0.0
218 1 94.6687739873 3.7056104837 2.1394355531
219 1 96.4218982764 2.4704075768 0.0
220 1 96.4218982764 6.1760180606 2.1394355531
221 1 95.5453361271 1.2352028973 2.1394355531
222 1 95.5453361271 4.9408151632 0.0
223 1 97.2984604257 0.0 0.0
224 1 97.2984604257 3.7056104837 2.1394355531
225 1 99.0515847148 2.4704075768 0.0
226 1 99.0515847148 6.1760180606 2.1394355531
227 1 98.1750225655 1.2352028973 2.1394355531
228 1 98.1750225655 4.9408151632 0.0
229 1 99.9281468641 0.0 0.0
230 1 99.9281468641 3.7056104837 2.1394355531
231 1 101.6812748129 2.4704075768 0.0
232 1 101.6812748129 6.1760180606 2.1394355531
233 1 100.8047126636 1.2352028973 2.1394355531
234 1 100.8047126636 4.9408151632 0.0
235 1 102.5578369622 0.0 0.0
236 1 102.5578369622 3.7056104837 2.1394355531
237 1 104.3109612512 2.4704075768 0.0
238 1 104.3109612512 6.1760180606 2.1394355531
239 1 103.434399102 1.2352028973 2.1394355531
240 1 103.434399102 4.9408151632 0.0
241 1 105.1875234005 0.0 0.0
242 1 105.1875234005 3.7056104837 2.1394355531
243 1 106.9406513493 2.4704075768 0.0
244 1 106.9406513493 6.1760180606 2.1394355531
245 1 106.0640892001 1.2352028973 2.1394355531
246 1 106.0640892001 4.9408151632 0.0
247 1 107.8172134891 0.0 0.0
248 1 107.8172134891 3.7056104837 2.1394355531
249 1 109.5703377877 2.4704075768 0.0
250 1 109.5703377877 6.1760180606 2.1394355531
251 1 108.6937756384 1.2352028973 2.1394355531
252 1 108.6937756384 4.9408151632 0.0
253 1 110.446899937 0.0 0.0
254 1 110.446899937 3.7056104837 2.1394355531
255 1 112.2000278858 2.4704075768 0.0
256 1 112.2000278858 6.1760180606 2.1394355531
257 1 111.3234620768 1.2352028973 2.1394355531
258 1 111.3234620768 4.9408151632 0.0
259 1 113.0765900256 0.0 0.0
260 1 113.0765900256 3.7056104837 2.1394355531
261 1 114.8297143242 2.4704075768 0.0
262 1 114.8297143242 6.1760180606 2.1394355531
263 1 113.9531521749 1.2352028973 2.1394355531
264 1 113.9531521749 4.9408151632 0.0
265 1 115.7062764734 0.0 0.0
266 1 115.7062764734 3.7056104837 2.1394355531
267 1 117.4594044224 2.4704075768 0.0
268 1 117.4594044224 6.1760180606 2.1394355531
269 1 116.5828386133 1.2352028973 2.1394355531
270 1 116.5828386133 4.9408151632 0.0
271 1 118.3359665621 0.0 0.0
272 1 118.3359665621 3.7056104837 2.1394355531
273 1 120.0890908606 2.4704075768 0.0
274 1 120.0890908606 6.1760180606 2.1394355531
275 1 119.2125287113 1.2352028973 2.1394355531
276 1 119.2125287113 4.9408151632 0.0
277 1 120.9656530004 0.0 0.0
278 1 120.9656530004 3.7056104837 2.1394355531
279 1 122.718777299 2.4704075768 0.0
280 1 122.718777299 6.1760180606 2.1394355531
281 1 121.8422151497 1.2352028973 2.1394355531
282 1 121.8422151497 4.9408151632 0.0
283 1 123.5953430985 0.0 0.0
284 1 123.5953430985 3.7056104837 2.1394355531
285 1 125.3484673972 2.4704075768 0.0
286 1 125.3484673972 6.1760180606 2.1394355531
287 1 124.4719052479 1.2352028973 2.1394355531
288 1 124.4719052479 4.9408151632 0.0
289 1 126.2250295369 0.0 0.0
290 1 126.2250295369 3.7056104837 2.1394355531
291 1 127.9781538355 2.4704075768 0.0
292 1 127.9781538355 6.1760180606 2.1394355531
293 1 127.1015916862 1.2352028973 2.1394355531
294 1 127.1015916862 4.9408151632 0.0
295 1 128.8547196351 0.0 0.0
296 1 128.8547196351 3.7056104837 2.1394355531
297 1 130.6078439241 2.4704075768 0.0
298 1 130.6078439241 6.1760180606 2.1394355531
299 1 129.7312817844 1.2352028973 2.1394355531
300 1 129.7312817844 4.9408151632 0.0
301 1 131.4844060734 0.0 0.0
302 1 131.4844060734 3.7056104837 2.1394355531
303 1 133.237530372 2.4704075768 0.0
304 1 133.237530372 6.1760180606 2.1394355531
305 1 132.3609682226 1.2352028973 2.1394355531
306 1 132.3609682226 4.9408151632 0.0
307 1 134.1140925117 0.0 0.0
308 1 134.1140925117 3.7056104837 2.1394355531
309 1 135.8672204605 2.4704075768 0.0
310 1 135.8672204605 6.1760180606 2.1394355531
311 1 134.9906583208 1.2352028973 2.1394355531
312 1 134.9906583208 4.9408151632 0.0
313 1 136.7437826099 0.0 0.0
314 1 136.7437826099 3.7056104837 2.1394355531
315 1 138.4969069085 2.4704075768 0.0
316 1 138.4969069085 6.1760180606 2.1394355531
317 1 137.6203447592 1.2352028973 2.1394355531
318 1 137.6203447592 4.9408151632 0.0
319 1 139.3734690482 0.0 0.0
320 1 139.3734690482 3.7056104837 2.1394355531
321 1 141.1265969971 2.4704075768 0.0
322 1 141.1265969971 6.1760180606 2.1394355531
323 1 140.2500348573 1.2352028973 2.1394355531
324 1 140.2500348573 4.9408151632 0.0
325 1 142.0031591464 0.0 0.0
326 1 142.0031591464 3.7056104837 2.1394355531
327 1 143.7562834354 2.4704075768 0.0
328 1 143.7562834354 6.1760180606 2.1394355531
329 1 142.8797212957 1.2352028973 2.1394355531
330 1 142.8797212957 4.9408151632 0.0
331 1 144.6328455848 0.0 0.0
332 1 144.6328455848 3.7056104837 2.1394355531
333 1 146.3859735336 2.4704075768 0.0
334 1 146.3859735336 6.1760180606 2.1394355531
335 1 145.509407734 1.2352028973 2.1394355531
336 1 145.509407734 4.9408151632 0.0
337 1 147.2625356828 0.0 0.0
338 1 147.2625356828 3.7056104837 2.1394355531
339 1 149.0156599719 2.4704075768 0.0
340 1 149.0156599719 6.1760180606 2.1394355531
341 1 148.1390978321 1.2352028973 2.1394355531
342 1 148.1390978321 4.9408151632 0.0
343 1 149.8922221212 0.0 0.0
344 1 149.8922221212 3.7056104837 2.1394355531
345 1 151.64535007 2.4704075768 0.0
346 1 151.64535007 6.1760180606 2.1394355531
347 1 150.7687842705 1.2352028973 2.1394355531
348 1 150.7687842705 4.9408151632 0.0
349 1 152.5219122193 0.0 0.0
350 1 152.5219122193 3.7056104837 2.1394355531
351 1 154.2750365084 2.4704075768 0.0
352 1 154.2750365084 6.1760180606 2.1394355531
353 1 153.3984743686 1.2352028973 2.1394355531
354 1 153.3984743686 4.9408151632 0.0
355 1 155.1515986577 0.0 0.0
356 1 155.1515986577 3.7056104837 2.1394355531
357 1 156.9047229468 2.4704075768 0.0
358 1 156.9047229468 6.1760180606 2.1394355531
359 1 156.028160807 1.2352028973 2.1394355531
360 1 156.028160807 4.9408151632 0.0
361 1 157.7812887558 0.0 0.0
362 1 157.7812887558 3.7056104837 2.1394355531
363 1 159.5344130449 2.4704075768 0.0
364 1 159.5344130449 6.1760180606 2.1394355531
365 1 158.6578508956 1.2352028973 2.1394355531
366 1 158.6578508956 4.9408151632 0.0
367 1 160.4109751941 0.0 0.0
368 1 160.4109751941 3.7056104837 2.1394355531
369 1 162.1640994832 2.4704075768 0.0
370 1 162.1640994832 6.1760180606 2.1394355531
371 1 161.2875373434 1.2352028973 2.1394355531
372 1 161.2875373434 4.9408151632 0.0
373 1 163.0406652923 0.0 0.0
374 1 163.0406652923 3.7056104837 2.1394355531
375 1 164.7937895813 2.4704075768 0.0
376 1 164.7937895813 6.1760180606 2.1394355531
377 1 163.917227432 1.2352028973 2.1394355531
378 1 163.917227432 4.9408151632 0.0
379 1 165.6703517306 0.0 0.0
380 1 165.6703517306 3.7056104837 2.1394355531
381 1 167.4234760197 2.4704075768 0.0
382 1 167.4234760197 6.1760180606 2.1394355531
383 1 166.5469138704 1.2352028973 2.1394355531
384 1 166.5469138704 4.9408151632 0.0
385 1 168.300038169 0.0 0.0
386 1 168.300038169 3.7056104837 2.1394355531
387 1 170.0531661178 2.4704075768 0.0
388 1 170.0531661178 6.1760180606 2.1394355531
389 1 169.1766039685 1.2352028973 2.1394355531
390 1 169.1766039685 4.9408151632 0.0
391 1 170.9297282671 0.0 0.0
392 1 170.9297282671 3.7056104837 2.1394355531
393 1 172.6828525562 2.4704075768 0.0
394 1 172.6828525562 6.1760180606 2.1394355531
395 1 171.8062904069 1.2352028973 2.1394355531
396 1 171.8062904069 4.9408151632 0.0
397 1 173.5594147054 0.0 0.0
398 1 173.5594147054 3.7056104837 2.1394355531
399 1 175.3125426543 2.4704075768 0.0
400 1 175.3125426543 6.1760180606 2.1394355531
401 1 174.435980505 1.2352028973 2.1394355531
402 1 174.435980505 4.9408151632 0.0
403 1 176.1891048036 0.0 0.0
404 1 176.1891048036 3.7056104837 2.1394355531
405 1 177.9422290926 2.4704075768 0.0
406 1 177.9422290926 6.1760180606 2.1394355531
407 1 177.0656669433 1.2352028973 2.1394355531
408 1 177.0656669433 4.9408151632 0.0
409 1 178.8187912419 0.0 0.0
410 1 178.8187912419 3.7056104837 2.1394355531
411 1 180.5719191908 2.4704075768 0.0
412 1 180.5719191908 6.1760180606 2.1394355531
413 1 179.6953533817 1.2352028973 2.1394355531
414 1 179.6953533817 4.9408151632 0.0
415 1 181.4484813305 0.0 0.0
416 1 181.4484813305 3.7056104837 2.1394355531
417 1 183.2016056292 2.4704075768 0.0
418 1 183.2016056292 6.1760180606 2.1394355531
419 1 182.3250434798 1.2352028973 2.1394355531
420 1 182.3250434798 4.9408151632 0.0
421 1 184.0781677785 0.0 0.0
422 1 184.0781677785 3.7056104837 2.1394355531
423 1 185.8312957273 2.4704075768 0.0
424 1 185.8312957273 6.1760180606 2.1394355531
425 1 184.9547299182 1.2352028973 2.1394355531
426 1 184.9547299182 4.9408151632 0.0
427 1 186.7078578671 0.0 0.0
428 1 186.7078578671 3.7056104837 2.1394355531
429 1 188.4609821656 2.4704075768 0.0
430 1 188.4609821656 6.1760180606 2.1394355531
431 1 187.5844200164 1.2352028973 2.1394355531
432 1 187.5844200164 4.9408151632 0.0
433 1 189.3375443053 0.0 0.0
434 1 189.3375443053 3.7056104837 2.1394355531
435 1 191.0906686039 2.4704075768 0.0
436 1 191.0906686039 6.1760180606 2.1394355531
437 1 190.2141064546 1.2352028973 2.1394355531
438 1 190.2141064546 4.9408151632 0.0
439 1 191.9672344035 0.0 0.0
440 1 191.9672344035 3.7056104837 2.1394355531
441 1 193.7203587021 2.4704075768 0.0
442 1 193.7203587021 6.1760180606 2.1394355531
443 1 192.8437965528 1.2352028973 2.1394355531
444 1 192.8437965528 4.9408151632 0.0
445 1 194.5969208418 0.0 0.0
446 1 194.5969208418 3.7056104837 2.1394355531
447 1 196.3500451405 2.4704075768 0.0
448 1 196.3500451405 6.1760180606 2.1394355531
449 1 195.4734829912 1.2352028973 2.1394355531
450 1 195.4734829912 4.9408151632 0.0
451 1 197.22661094 0.0 0.0
452 1 197.22661094 3.7056104837 2.1394355531
453 1 198.9797352386 2.4704075768 0.0
454 1 198.9797352386 6.1760180606 2.1394355531
455 1 198.1031730893 1.2352028973 2.1394355531
456 1 198.1031730893 4.9408151632 0.0
457 1 199.8562973784 0.0 0.0
458 1 199.8562973784 3.7056104837 2.1394355531
459 1 201.6094216769 2.4704075768 0.0
460 1 201.6094216769 6.1760180606 2.1394355531
461 1 200.7328595277 1.2352028973 2.1394355531
462 1 200.7328595277 4.9408151632 0.0
463 1 202.4859838166 0.0 0.0
464 1 202.4859838166 3.7056104837 2.1394355531
465 1 204.2391117656 2.4704075768 0.0
466 1 204.2391117656 6.1760180606 2.1394355531
467 1 203.3625496257 1.2352028973 2.1394355531
468 1 203.3625496257 4.9408151632 0.0
469 1 205.1156739148 0.0 0.0
470 1 205.1156739148 3.7056104837 2.1394355531
471 1 206.8687982134 2.4704075768 0.0
472 1 206.8687982134 6.1760180606 2.1394355531
473 1 205.9922360641 1.2352028973 2.1394355531
474 1 205.9922360641 4.9408151632 0.0
475 1 207.7453603532 0.0 0.0
476 1 207.7453603532 3.7056104837 2.1394355531
477 1 209.498488302 2.4704075768 0.0
478 1 209.498488302 6.1760180606 2.1394355531
479 1 208.6219261622 1.2352028973 2.1394355531
480 1 208.6219261622 4.9408151632 0.0
481 1 210.3750504513 0.0 0.0
482 1 210.3750504513 3.7056104837 2.1394355531
483 1 212.1281747404 2.4704075768 0.0
484 1 212.1281747404 6.1760180606 2.1394355531
485 1 211.2516126006 1.2352028973 2.1394355531
486 1 211.2516126006 4.9408151632 0.0
487 1 213.0047368897 0.0 0.0
488 1 213.0047368897 3.7056104837 2.1394355531
489 1 214.7578648385 2.4704075768 0.0
490 1 214.7578648385 6.1760180606 2.1394355531
491 1 213.8812990389 1.2352028973 2.1394355531
492 1 213.8812990389 4.9408151632 0.0
493 1 215.6344269878 0.0 0.0
494 1 215.6344269878 3.7056104837 2.1394355531
495 1 217.3875512768 2.4704075768 0.0
496 1 217.3875512768 6.1760180606 2.1394355531
497 1 216.510989137 1.2352028973 2.1394355531
498 1 216.510989137 4.9408151632 0.0
499 1 218.2641134261 0.0 0.0
500 1 218.2641134261 3.7056104837 2.1394355531
501 1 220.0172413749 2.4704075768 0.0
502 1 220.0172413749 6.1760180606 2.1394355531
503 1 219.1406755754 1.2352028973 2.1394355531
504 1 219.1406755754 4.9408151632 0.0
505 1 220.8938035242 0.0 0.0
506 1 220.8938035242 3.7056104837 2.1394355531
507 1 222.6469278133 2.4704075768 0.0
508 1 222.6469278133 6.1760180606 2.1394355531
509 1 221.7703656736 1.2352028973 2.1394355531
510 1 221.7703656736 4.9408151632 0.0
511 1 223.5234899626 0.0 0.0
512 1 223.5234899626 3.7056104837 2.1394355531
513 1 225.2766142517 2.4704075768 0.0
514 1 225.2766142517 6.1760180606 2.1394355531
515 1 224.4000521119 1.2352028973 2.1394355531
516 1 224.4000521119 4.9408151632 0.0
517 1 226.1531800608 0.0 0.0
518 1 226.1531800608 3.7056104837 2.1394355531
519 1 227.9063043498 2.4704075768 0.0
520 1 227.9063043498 6.1760180606 2.1394355531
521 1 227.0297422005 1.2352028973 2.1394355531
522 1 227.0297422005 4.9408151632 0.0
523 1 228.7828664991 0.0 0.0
524 1 228.7828664991 3.7056104837 2.1394355531
525 1 230.5359907881 2.4704075768 0.0
526 1 230.5359907881 6.1760180606 2.1394355531
527 1 229.6594286483 1.2352028973 2.1394355531
528 1 229.6594286483 4.9408151632 0.0
529 1 231.4125565972 0.0 0.0
530 1 231.4125565972 3.7056104837 2.1394355531
531 1 233.1656808862 2.4704075768 0.0
532 1 233.1656808862 6.1760180606 2.1394355531
533 1 232.289118737 1.2352028973 2.1394355531
534 1 232.289118737 4.9408151632 0.0
535 1 234.0422430356 0.0 0.0
536 1 234.0422430356 3.7056104837 2.1394355531
537 1 235.7953673246 2.4704075768 0.0
538 1 235.7953673246 6.1760180606 2.1394355531
539 1 234.9188051849 1.2352028973 2.1394355531
540 1 234.9188051849 4.9408151632 0.0
541 1 236.6719294739 0.0 0.0
542 1 236.6719294739 3.7056104837 2.1394355531
543 1 238.4250574228 2.4704075768 0.0
544 1 238.4250574228 6.1760180606 2.1394355531
545 1 237.5484952735 1.2352028973 2.1394355531
546 1 237.5484952735 4.9408151632 0.0
547 1 239.3016195721 0.0 0.0
548 1 239.3016195721 3.7056104837 2.1394355531
549 1 241.0547438611 2.4704075768 0.0
550 1 241.0547438611 6.1760180606 2.1394355531
551 1 240.1781817118 1.2352028973 2.1394355531
552 1 240.1781817118 4.9408151632 0.0
553 1 241.9313060103 0.0 0.0
554 1 241.9313060103 3.7056104837 2.1394355531
555 1 243.6844339593 2.4704075768 0.0
556 1 243.6844339593 6.1760180606 2.1394355531
557 1 242.80787181 1.2352028973 2.1394355531
558 1 242.80787181 4.9408151632 0.0
559 1 244.5609961085 0.0 0.0
560 1 244.5609961085 3.7056104837 2.1394355531
561 1 246.3141203976 2.4704075768 0.0
562 1 246.3141203976 6.1760180606 2.1394355531
563 1 245.4375582482 1.2352028973 2.1394355531
564 1 245.4375582482 4.9408151632 0.0
565 1 247.1906825469 0.0 0.0
566 1 247.1906825469 3.7056104837 2.1394355531
567 1 248.9438104957 2.4704075768 0.0
568 1 248.9438104957 6.1760180606 2.1394355531
569 1 248.0672446866 1.2352028973 2.1394355531
570 1 248.0672446866 4.9408151632 0.0
571 1 249.8203726355 0.0 0.0
572 1 249.8203726355 3.7056104837 2.1394355531
573 1 251.5734969341 2.4704075768 0.0
574 1 251.5734969341 6.1760180606 2.1394355531
575 1 250.6969347848 1.2352028973 2.1394355531
576 1 250.6969347848 4.9408151632 0.0
577 1 252.4500590834 0.0 0.0
578 1 252.4500590834 3.7056104837 2.1394355531
579 1 254.2031870322 2.4704075768 0.0
580 1 254.2031870322 6.1760180606 2.1394355531
581 1 253.3266212231 1.2352028973 2.1394355531
582 1 253.3266212231 4.9408151632 0.0
583 1 255.079749172 0.0 0.0
584 1 255.079749172 3.7056104837 2.1394355531
585 1 256.8328734706 2.4704075768 0.0
586 1 256.8328734706 6.1760180606 2.1394355531
587 1 255.9563113213 1.2352028973 2.1394355531
588 1 255.9563113213 4.9408151632 0.0
589 1 257.7094356198 0.0 0.0
590 1 257.7094356198 3.7056104837 2.1394355531
591 1 259.4625599089 2.4704075768 0.0
592 1 259.4625599089 6.1760180606 2.1394355531
593 1 258.5859977596 1.2352028973 2.1394355531
594 1 258.5859977596 4.9408151632 0.0
595 1 260.3391257085 0.0 0.0
596 1 260.3391257085 3.7056104837 2.1394355531
597 1 262.092250007 2.4704075768 0.0
598 1 262.092250007 6.1760180606 2.1394355531
599 1 261.2156878577 1.2352028973 2.1394355531
600 1 261.2156878577 4.9408151632 0.0
601 1 262.9688121468 0.0 0.0
602 1 262.9688121468 3.7056104837 2.1394355531
603 1 264.7219364454 2.4704075768 0.0
604 1 264.7219364454 6.1760180606 2.1394355531
605 1 263.8453742961 1.2352028973 2.1394355531
606 1 263.8453742961 4.9408151632 0.0
607 1 265.5985022449 0.0 0.0
608 1 265.5985022449 3.7056104837 2.1394355531
609 1 267.3516265435 2.4704075768 0.0
610 1 267.3516265435 6.1760180606 2.1394355531
611 1 266.4750643942 1.2352028973 2.1394355531
612 1 266.4750643942 4.9408151632 0.0
613 1 268.2281886833 0.0 0.0
614 1 268.2281886833 3.7056104837 2.1394355531
615 1 269.9813129818 2.4704075768 0.0
616 1 269.9813129818 6.1760180606 2.1394355531
617 1 269.1047508326 1.2352028973 2.1394355531
618 1 269.1047508326 4.9408151632 0.0
619 1 270.8578751217 0.0 0.0
620 1 270.8578751217 3.7056104837 2.1394355531
621 1 272.6110030705 2.4704075768 0.0
622 1 272.6110030705 6.1760180606 2.1394355531
623 1 271.7344409307 1.2352028973 2.1394355531
624 1 271.7344409307 4.9408151632 0.0
625 1 273.4875652197 0.0 0.0
626 1 273.4875652197 3.7056104837 2.1394355531
627 1 275.2406895183 2.4704075768 0.0
628 1 275.2406895183 6.1760180606 2.1394355531
629 1 274.364127369 1.2352028973 2.1394355531
630 1 274.364127369 4.9408151632 0.0
631 1 276.1172516581 0.0 0.0
632 1 276.1172516581 3.7056104837 2.1394355531
633 1 277.8703796069 2.4704075768 0.0
634 1 277.8703796069 6.1760180606 2.1394355531
635 1 276.9938138074 1.2352028973 2.1394355531
636 1 276.9938138074 4.9408151632 0.0
637 1 278.7469417562 0.0 0.0
638 1 278.7469417562 3.7056104837 2.1394355531
639 1 280.5000660549 2.4704075768 0.0
640 1 280.5000660549 6.1760180606 2.1394355531
641 1 279.6235039055 1.2352028973 2.1394355531
642 1 279.6235039055 4.9408151632 0.0
643 1 281.3766281946 0.0 0.0
644 1 281.3766281946 3.7056104837 2.1394355531
645 1 283.1297561434 2.4704075768 0.0
646 1 283.1297561434 6.1760180606 2.1394355531
647 1 282.2531903439 1.2352028973 2.1394355531
648 1 282.2531903439 4.9408151632 0.0
649 1 284.0063182928 0.0 0.0
650 1 284.0063182928 3.7056104837 2.1394355531
651 1 285.7594425818 2.4704075768 0.0
652 1 285.7594425818 6.1760180606 2.1394355531
653 1 284.8828804421 1.2352028973 2.1394355531
654 1 284.8828804421 4.9408151632 0.0
655 1 286.636004731 0.0 0.0
656 1 286.636004731 3.7056104837 2.1394355531
657 1 288.3891290296 2.4704075768 0.0
658 1 288.3891290296 6.1760180606 2.1394355531
659 1 287.5125668803 1.2352028973 2.1394355531
660 1 287.5125668803 4.9408151632 0.0
661 1 289.2656948292 0.0 0.0
662 1 289.2656948292 3.7056104837 2.1394355531
663 1 291.0188191182 2.4704075768 0.0
664 1 291.0188191182 6.1760180606 2.1394355531
665 1 290.1422569785 1.2352028973 2.1394355531
666 1 290.1422569785 4.9408151632 0.0
667 1 291.8953812675 0.0 0.0
668 1 291.8953812675 3.7056104837 2.1394355531
669 1 293.6485055662 2.4704075768 0.0
670 1 293.6485055662 6.1760180606 2.1394355531
671 1 292.7719434169 1.2352028973 2.1394355531
672 1 292.7719434169 4.9408151632 0.0
673 1 294.5250713657 0.0 0.0
674 1 294.5250713657 3.7056104837 2.1394355531
675 1 296.2781956548 2.4704075768 0.0
676 1 296.2781956548 6.1760180606 2.1394355531
677 1 295.4016335054 1.2352028973 2.1394355531
678 1 295.4016335054 4.9408151632 0.0
679 1 297.1547578041 0.0 0.0
680 1 297.1547578041 3.7056104837 2.1394355531
681 1 298.9078820931 2.4704075768 0.0
682 1 298.9078820931 6.1760180606 2.1394355531
683 1 298.0313199533 1.2352028973 2.1394355531
684 1 298.0313199533 4.9408151632 0.0
685 1 299.7844442423 0.0 0.0
686 1 299.7844442423 3.7056104837 2.1394355531
687 1 301.5375721912 2.4704075768 0.0
688 1 301.5375721912 6.1760180606 2.1394355531
689 1 300.661010042 1.2352028973 2.1394355531
690 1 300.661010042 4.9408151632 0.0
691 1 302.4141343405 0.0 0.0
692 1 302.4141343405 3.7056104837 2.1394355531
693 1 304.1672586295 2.4704075768 0.0
694 1 304.1672586295 6.1760180606 2.1394355531
695 1 303.2906964898 1.2352028973 2.1394355531
696 1 303.2906964898 4.9408151632 0.0
697 1 305.0438207789 0.0 0.0
698 1 305.0438207789 3.7056104837 2.1394355531
699 1 306.7969487277 2.4704075768 0.0
700 1 306.7969487277 6.1760180606 2.1394355531
701 1 305.9203865784 1.2352028973 2.1394355531
702 1 305.9203865784 4.9408151632 0.0
703 1 307.673510877 0.0 0.0
704 1 307.673510877 3.7056104837 2.1394355531
705 1 309.4266351661 2.4704075768 0.0
706 1 309.4266351661 6.1760180606 2.1394355531
707 1 308.5500730168 1.2352028973 2.1394355531
708 1 308.5500730168 4.9408151632 0.0
709 1 310.3031973154 0.0 0.0
710 1 310.3031973154 3.7056104837 2.1394355531
711 1 312.0563252642 2.4704075768 0.0
712 1 312.0563252642 6.1760180606 2.1394355531
713 1 311.1797594646 1.2352028973 2.1394355531
714 1 311.1797594646 4.9408151632 0.0
715 1 312.9328874135 0.0 0.0
716 1 312.9328874135 3.7056104837 2.1394355531
717 1 314.6860117025 2.4704075768 0.0
718 1 314.6860117025 6.1760180606 2.1394355531
719 1 313.8094495533 1.2352028973 2.1394355531
720 1 313.8094495533 4.9408151632 0.0
721 1 315.5625738518 0.0 0.0
722 1 315.5625738518 3.7056104837 2.1394355531
723 1 317.3157018006 2.4704075768 0.0
724 1 317.3157018006 6.1760180606 2.1394355531
725 1 316.4391360011 1.2352028973 2.1394355531
726 1 316.4391360011 4.9408151632 0.0
727 1 318.1922639499 0.0 0.0
728 1 318.1922639499 3.7056104837 2.1394355531
729 1 319.945388239 2.4704075768 0.0
730 1 319.945388239 6.1760180606 2.1394355531
731 1 319.0688260897 1.2352028973 2.1394355531
732 1 319.0688260897 4.9408151632 0.0
733 1 320.8219503883 0.0 0.0
734 1 320.8219503883 3.7056104837 2.1394355531
735 1 322.5750746774 2.4704075768 0.0
736 1 322.5750746774 6.1760180606 2.1394355531
737 1 321.6985125281 1.2352028973 2.1394355531
738 1 321.6985125281 4.9408151632 0.0