# LAMMPS data file written by OVITO Basic 3.3.0
74970 atoms
1 atom types
0.0 363.152248697 xlo xhi
0.0 363.7040437331 ylo yhi
0.0 7.8607372512 zlo zhi
0.0 0.028359043 0.0 xy xz yz

Masses

1 1.008  # H

Atoms  # atomic

1 1 -0.0035481685 0.0 -0.9835035245
2 1 3.7020447597 2.1394344856 -0.9950550674
3 1 2.4731550514 0.0 0.7572708533
4 1 6.1787481987 2.1394344856 0.7457790584
5 1 1.2347944779 2.1394344856 -0.1156035122
6 1 4.9404054094 0.0 -0.1221611163
7 1 7.4076559009 0.0 -1.0015532379
8 1 11.1132494867 2.1394344856 -1.0129216198
9 1 9.8843595593 0.0 0.7393406262
10 1 13.5899570049 2.1394344856 0.7280359286
11 1 8.6459987665 2.1394344856 -0.1335918576
12 1 12.351613987 0.0 -0.1399702653
13 1 14.8188649263 0.0 -1.0192397362
14 1 18.5244591983 2.1394344856 -1.0304129291
15 1 17.2955690231 0.0 0.7217783703
16 1 21.0011635524 2.1394344856 0.7106729979
17 1 16.0572080206 2.1394344856 -0.1512098872
18 1 19.7628202674 0.0 -0.1574067062
19 1 22.2300716644 0.0 -1.0365488184
20 1 25.9356666988 2.1394344856 -1.0475143275
21 1 24.7067762282 0.0 0.7045982101
22 1 28.4123715294 2.1394344856 0.6937047625
23 1 23.4684150541 2.1394344856 -0.1684428571
24 1 27.1740279491 0.0 -0.1744564387
25 1 29.6412798225 0.0 -1.0534666173
26 1 33.346875648 2.1394344856 -1.0642115763
27 1 32.1179848627 0.0 0.6878138125
28 1 35.8235846054 2.1394344856 0.6771452706
29 1 30.8796235077 2.1394344856 -0.185276376
30 1 34.5852407105 0.0 -0.1911059864
31 1 37.05249307 0.0 -1.0699798853
32 1 40.7580897436 2.1394344856 -1.0804911228
33 1 39.5291986153 0.0 0.6714382155
34 1 43.234795575 2.1394344856 0.6610078365
35 1 38.2908370887 2.1394344856 -0.2016966147
36 1 41.996451318 0.0 -0.2073425589
37 1 44.4637041921 0.0 -1.0860761277
38 1 48.1693017617 2.1394344856 -1.0963403291
39 1 46.9404102426 0.0 0.6554835519
40 1 50.6460081267 2.1394344856 0.6453046693
41 1 45.7020485826 2.1394344856 -0.217690583
42 1 49.4076634599 0.0 -0.2231544238
43 1 51.8749168487 0.0 -1.1017440504
44 1 55.5805153619 2.1394344856 -1.1117478443
45 1 54.351623433 0.0 0.6399606675
46 1 58.0572258918 2.1394344856 0.6300466147
47 1 53.113261649 2.1394344856 -0.2332465008
48 1 56.8188808152 0.0 -0.2385312406
49 1 59.2861347377 0.0 -1.1169738178
50 1 62.991734223 2.1394344856 -1.1267040328
51 1 61.7628418461 0.0 0.6248788262
52 1 65.4684416745 2.1394344856 0.6152426888
53 1 60.5244799668 2.1394344856 -0.2483540941
54 1 64.2300961308 0.0 -0.2534643457
55 1 66.6973505871 0.0 -1.1317574624
56 1 70.4029511207 2.1394344856 -1.1412012891
57 1 69.1740582483 0.0 0.6102452617
58 1 72.879659125 2.1394344856 0.600899649
59 1 67.9356963023 2.1394344856 -0.2630050139
60 1 71.6413130667 0.0 -0.2679472773
61 1 74.1085680757 0.0 -1.1460893512
62 1 77.8141696768 2.1394344856 -1.155234619
63 1 76.5852762706 0.0 0.5960647681
64 1 80.2908818746 2.1394344856 0.5870215552
65 1 75.3469143056 2.1394344856 -0.2771933609
66 1 79.0525316418 0.0 -0.281976185
67 1 81.5197908349 0.0 -1.1599665777
68 1 85.225393551 2.1394344856 -1.1688020784
69 1 83.9964995826 0.0 0.5823391752
70 1 87.70210268 2.1394344856 0.5736092272
71 1 82.7581376175 2.1394344856 -0.2909161327
72 1 86.4637554971 0.0 -0.2955502873
73 1 88.9310116021 0.0 -1.1733894944
74 1 92.6366154715 2.1394344856 -1.1819052683
75 1 91.4077208931 0.0 0.5690669963
76 1 95.1133251532 2.1394344856 0.5606597389
77 1 90.1693589757 2.1394344856 -0.3041736534
78 1 93.8749773508 0.0 -0.308672348
79 1 96.3422339801 0.0 -1.1863621708
80 1 100.0478390407 2.1394344856 -1.1945498787
81 1 98.8189438142 0.0 0.5562427797
82 1 102.5245529065 2.1394344856 0.548165933
83 1 97.5805820112 2.1394344856 -0.3169702214
84 1 101.2862007961 0.0 -0.3213491818
85 1 103.7534616094 0.0 -1.1988929083
86 1 107.4590678615 2.1394344856 -1.2067461931
87 1 106.2301719583 0.0 0.5438567374
88 1 109.9357786202 2.1394344856 0.5361159339
89 1 104.9918102981 2.1394344856 -0.3293145288
90 1 108.6974294643 0.0 -0.3335921395
91 1 111.1646871325 0.0 -1.2109945733
92 1 114.8702946235 2.1394344856 -1.2185094704
93 1 113.6413979864 0.0 0.5318943733
94 1 117.3470058777 2.1394344856 0.5244926819
95 1 112.4030365264 2.1394344856 -0.3412201184
96 1 116.1086559881 0.0 -0.3454173949
97 1 118.5759141422 0.0 -1.222685093
98 1 122.2815228628 2.1394344856 -1.2298603728
99 1 121.0526254728 0.0 0.5203360064
100 1 124.7582345936 2.1394344856 0.5132736845
101 1 119.8142642892 2.1394344856 -0.3527058328
102 1 123.5198839415 0.0 -0.3568463729
103 1 125.9871461939 0.0 -1.2339876747
104 1 129.6927561153 2.1394344856 -1.2408251862
105 1 128.4638579724 0.0 0.5091566471
106 1 132.169468294 2.1394344856 0.5024307402
107 1 127.2254971033 2.1394344856 -0.3637960799
108 1 130.9311168698 0.0 -0.367905912
109 1 133.3983759104 0.0 -1.2449309679
110 1 137.1039870327 2.1394344856 -1.2514359148
111 1 135.8750880892 0.0 0.4983258067
112 1 139.5806996117 2.1394344856 0.4919299389
113 1 134.6367275919 2.1394344856 -0.3745209197
114 1 138.3423473775 0.0 -0.3786282834
115 1 140.8096067898 0.0 -1.2555490637
116 1 144.5152190843 2.1394344856 -1.2617302525
117 1 143.2863193211 0.0 0.4878076024
118 1 146.9919320064 2.1394344856 0.4817317374
119 1 142.0479592909 2.1394344856 -0.384916197
120 1 145.7535789621 0.0 -0.3890511712
121 1 148.2208423391 0.0 -1.2658813621
122 1 151.9264557487 2.1394344856 -1.271751297
123 1 150.697555185 0.0 0.4775609373
124 1 154.4031689567 2.1394344856 0.4717913322
125 1 149.4591956408 2.1394344856 -0.3950232371
126 1 153.1648151119 0.0 -0.3992172731
127 1 155.6320751246 0.0 -1.2759721905
128 1 159.3376896111 2.1394344856 -1.2815470832
129 1 158.1087882183 0.0 0.4675399976
130 1 161.8144030479 2.1394344856 0.4620592111
131 1 156.8704292458 2.1394344856 -0.4048884832
132 1 160.5760483834 0.0 -0.4091739187
133 1 163.0433086058 0.0 -1.2858702128
134 1 166.7489240835 2.1394344856 -1.2911698967
135 1 165.5200218901 0.0 0.4576947565
136 1 169.2256376824 2.1394344856 0.452481821
137 1 164.2816635371 2.1394344856 -0.4145629245
138 1 167.9872822173 0.0 -0.4189722973
139 1 170.4545462232 0.0 -1.2956277808
140 1 174.1601626065 2.1394344856 -1.3006754347
141 1 172.931259641 0.0 0.4479718802
142 1 176.6368763006 2.1394344856 0.4430025686
143 1 171.6929019457 2.1394344856 -0.424101191
144 1 175.3985200731 0.0 -0.4286666959
145 1 177.8657805241 0.0 -1.3052999443
146 1 181.571397727 2.1394344856 -1.3101217013
147 1 180.3424939895 0.0 0.4383156235
148 1 184.0481114497 2.1394344856 0.4335629069
149 1 179.104137009 2.1394344856 -0.4335606672
150 1 182.8097544596 0.0 -0.4383133742
151 1 185.2770149202 0.0 -1.3149434393
152 1 188.9826328284 2.1394344856 -1.319567968
153 1 187.7537283761 0.0 0.4286689451
154 1 191.4593465034 2.1394344856 0.4241034307
155 1 186.5153721485 2.1394344856 -0.4430003384
156 1 190.2209888081 0.0 -0.4479696214
157 1 192.6882492116 0.0 -1.3246155837
158 1 196.3938713608 2.1394344856 -1.3290734965
159 1 195.1649662319 0.0 0.4189745656
160 1 198.870584912 2.1394344856 0.4145651737
161 1 193.9266107668 2.1394344856 -0.4524795718
162 1 197.6322265591 0.0 -0.4576924882
163 1 200.0994868386 0.0 -1.3343731423
164 1 203.8051058332 2.1394344856 -1.3386962909
165 1 202.5762000753 0.0 0.4091761965
166 1 206.2818192128 2.1394344856 0.4048907515
167 1 201.3378454012 2.1394344856 -0.4620569523
168 1 205.0434602309 0.0 -0.4675377102
169 1 207.5107203198 0.0 -1.3442711645
170 1 211.2163396861 2.1394344856 -1.3484920581
171 1 209.9874333372 0.0 0.3992195701
172 1 213.6930528084 2.1394344856 0.3950255245
173 1 208.7490794924 2.1394344856 -0.4717890639
174 1 212.4546932641 0.0 -0.4775586405
175 1 214.9219530957 0.0 -1.3543619547
176 1 218.6275763506 2.1394344856 -1.3585130835
177 1 217.3986694871 0.0 0.3890534872
178 1 221.1042891583 2.1394344856 0.384918513
179 1 216.1603164428 2.1394344856 -0.4817294405
180 1 219.865929128 0.0 -0.4878052673
181 1 222.3331886546 0.0 -1.3646942341
182 1 226.0388084021 2.1394344856 -1.3688073926
183 1 224.8099010811 0.0 0.3786306374
184 1 228.5155208573 2.1394344856 0.3745232737
185 1 223.5715488469 2.1394344856 -0.4919276133
186 1 227.2771603695 0.0 -0.4983234432
187 1 229.7444195339 0.0 -1.3753123014
188 1 233.4500393196 2.1394344856 -1.379418083
189 1 232.2211315792 0.0 0.3679083043
190 1 235.9267513553 2.1394344856 0.3637984626
191 1 230.9827801552 2.1394344856 -0.5024283766
192 1 234.6883904768 0.0 -0.5091542453
193 1 237.1556492409 0.0 -1.3862555563
194 1 240.8612725815 2.1394344856 -1.3903828584
195 1 239.6323645076 0.0 0.3568487937
196 1 243.3379841599 2.1394344856 0.3527082726
197 1 238.3940138556 2.1394344856 -0.5132712827
198 1 242.0996229764 0.0 -0.520333576
199 1 244.5668812925 0.0 -1.3975581096
200 1 248.2725008209 2.1394344856 -1.4017337131
201 1 247.0435924706 0.0 0.3454198538
202 1 250.7492119226 2.1394344856 0.3412225869
203 1 245.8052425714 2.1394344856 -0.5244902517
204 1 249.5108504627 0.0 -0.5318918952
205 1 251.9781083024 0.0 -1.4092485816
206 1 255.6837275734 2.1394344856 -1.4134969427
207 1 254.4548189944 0.0 0.3335946461
208 1 258.1604381605 2.1394344856 0.3293170353
209 1 253.2164698386 2.1394344856 -0.5361134464
210 1 256.9220765005 0.0 -0.5438542213
211 1 259.389333835 0.0 -1.4213501989
212 1 263.094956394 2.1394344856 -1.4256932094
213 1 261.8660476531 0.0 0.3213517264
214 1 265.5716664475 2.1394344856 0.3169727757
215 1 260.6276955523 2.1394344856 -0.5481634073
216 1 264.3333046444 0.0 -0.5562402159
217 1 266.8005614548 0.0 -1.4338808792
218 1 270.5061799633 2.1394344856 -1.4383377817
219 1 269.2772711079 0.0 0.3086749405
220 1 272.9828894735 2.1394344856 0.3041762553
221 1 268.0389232959 2.1394344856 -0.5606571656
222 1 271.7445275656 0.0 -0.5690643848
223 1 274.2117838423 0.0 -1.4468535271
224 1 277.9174018933 2.1394344856 -1.4514409145
225 1 276.6884929521 0.0 0.2955529178
226 1 280.3941108316 2.1394344856 0.2909187822
227 1 275.4501457787 2.1394344856 -0.5736066062
228 1 279.1557488666 0.0 -0.5823365256
229 1 281.6230045999 0.0 -1.4602763865
230 1 285.328625758 2.1394344856 -1.4650083357
231 1 284.0997168072 0.0 0.2819788727
232 1 287.8053341435 2.1394344856 0.2771960771
233 1 282.8613665745 2.1394344856 -0.5870188866
234 1 286.5669721785 0.0 -0.5960620709
235 1 289.0342273686 0.0 -1.4741535749
236 1 292.7398443236 2.1394344856 -1.4790416085
237 1 291.5109353825 0.0 0.2679500126
238 1 295.2165521564 2.1394344856 0.2630077683
239 1 290.2725893241 2.1394344856 -0.6008969327
240 1 293.9781902104 0.0 -0.6102425168
241 1 296.4454448478 0.0 -1.4884854162
242 1 300.1510612214 2.1394344856 -1.4935388267
243 1 298.9221523279 0.0 0.2534671192
244 1 302.6277684823 2.1394344856 0.2483568866
245 1 297.6838067747 2.1394344856 -0.6152399249
246 1 301.3894066031 0.0 -0.6248760336
247 1 303.8566607066 0.0 -1.503269013
248 1 307.5622800825 2.1394344856 -1.5084949579
249 1 306.333367634 0.0 0.2385340617
250 1 310.0389868002 2.1394344856 0.2332493505
251 1 305.0950225573 2.1394344856 -0.6300438031
252 1 308.8006250258 0.0 -0.6399578273
253 1 311.2678785861 0.0 -1.5184987328
254 1 314.9734936827 2.1394344856 -1.523902435
255 1 313.7445849893 0.0 0.2231573021
256 1 317.4501998665 2.1394344856 0.2176934898
257 1 312.506240332 2.1394344856 -0.6453018101
258 1 316.2118382065 0.0 -0.6554806641
259 1 318.6790912523 0.0 -1.5341666174
260 1 322.3847057007 2.1394344856 -1.5397516032
261 1 321.1557971312 0.0 0.2073454752
262 1 324.86141137 2.1394344856 0.2016995501
263 1 319.9174528742 2.1394344856 -0.6610049297
264 1 323.6230498337 0.0 -0.67143528
265 1 326.0903023649 0.0 -1.5502628121
266 1 329.7959197869 2.1394344856 -1.5560311019
267 1 328.5670077482 0.0 0.1911089504
268 1 332.2726249415 2.1394344856 0.1852793496
269 1 327.3286638438 2.1394344856 -0.6771423256
270 1 331.0342635864 0.0 -0.6878108389
271 1 333.5015156218 0.0 -1.5667760419
272 1 337.207128736 2.1394344856 -1.5727283126
273 1 335.9782205096 0.0 0.174459441
274 1 339.6838334046 2.1394344856 0.1684458783
275 1 334.7398769197 2.1394344856 -0.6937017699
276 1 338.445472221 0.0 -0.7045951888
277 1 340.91272378 0.0 -1.5836938027
278 1 344.6183362365 2.1394344856 -1.5898296635
279 1 343.3894281912 0.0 0.1574097466
280 1 347.0950404285 2.1394344856 0.1512129465
281 1 342.1510849064 2.1394344856 -0.7106699672
282 1 345.8566794261 0.0 -0.7217753109
283 1 348.323930518 0.0 -1.6010028373
284 1 352.0295459577 2.1394344856 -1.6073209251
285 1 350.8006344718 0.0 0.1399733437
286 1 354.5062496922 2.1394344856 0.1335949645
287 1 349.5622914537 2.1394344856 -0.7280328597
288 1 353.2678888994 0.0 -0.7393375288
289 1 355.7351395434 0.0 -1.6186892878
290 1 359.4407506847 2.1394344856 -1.6251874489
291 1 358.2118430492 0.0 0.1221642328
292 1 361.9174539808 2.1394344856 0.1156066478
293 1 356.9735002599 2.1394344856 -0.7457759418
294 1 360.6790933977 0.0 -0.7572677272
295 1 -0.0035661815 4.2788726024 -0.9884972918
296 1 3.7020265179 6.4183070785 -1.0001098885
297 1 2.4731370384 4.2788726024 0.7522764379
298 1 6.1787299569 6.4183070785 0.7407241801
299 1 1.2347762456 6.4183070785 -0.120657304
300 1 4.9403873869 4.2788726024 -0.1271552267
301 1 7.4076378879 4.2788726024 -1.0065460713
302 1 11.113231264 6.4183070785 -1.0179735435
303 1 9.8843415558 4.2788726024 0.7343500994
304 1 13.5899387918 6.4183070785 0.7229871215
305 1 8.6459805342 6.4183070785 -0.1386457827
306 1 12.3515959929 4.2788726024 -0.1449574087
307 1 14.8188469514 4.2788726024 -1.0242223811
308 1 18.5244410233 6.4183070785 -1.0354520816
309 1 17.2955510672 4.2788726024 0.7168013866
310 1 21.0011453964 6.4183070785 0.7056404979
311 1 16.0571898265 6.4183070785 -0.1562544722
312 1 19.7628023402 4.2788726024 -0.1623768184
313 1 22.2300537658 4.2788726024 -1.0415108198
314 1 25.9356486095 6.4183070785 -1.0525295962
315 1 24.7067583675 4.2788726024 0.6996456059
316 1 28.4123534782 6.4183070785 0.6887001493
317 1 23.4683969267 6.4183070785 -0.173467399
318 1 27.1740101171 4.2788726024 -0.1793982827
319 1 29.6412620382 4.2788726024 -1.0583963096
320 1 33.3468576921 6.4183070785 -1.0691905234
321 1 32.1179671356 4.2788726024 0.6828977109
322 1 35.8235666971 6.4183070785 0.6721814297
323 1 30.8796054946 6.4183070785 -0.1902688947
324 1 34.5852230214 4.2788726024 -0.1960069913
325 1 37.0524754477 4.2788726024 -1.0748642496
326 1 40.7580719594 6.4183070785 -1.0854199002
327 1 39.5291810598 4.2788726024 0.6665720739
328 1 43.2347778669 6.4183070785 0.6560991213
329 1 38.2908192377 6.4183070785 -0.2066437482
330 1 41.9964338386 4.2788726024 -0.2121888003
331 1 44.4636867796 4.2788726024 -1.090900763
332 1 48.1692842157 6.4183070785 -1.1012035734
333 1 46.9403929253 4.2788726024 0.6506822763
334 1 50.6459906665 6.4183070785 0.6404669292
335 1 45.7020309508 6.4183070785 -0.2225774729
336 1 49.4076462284 4.2788726024 -0.2279305193
337 1 51.8748997221 4.2788726024 -1.1064930881
338 1 55.5804981112 6.4183070785 -1.1165286955
339 1 54.3516064016 4.2788726024 0.6352406031
340 1 58.0572087651 6.4183070785 0.6252972338
341 1 53.1132442936 6.4183070785 -0.2380567925
342 1 56.8188638981 4.2788726024 -0.2432203398
343 1 59.286117935 4.2788726024 -1.1216299312
344 1 62.9917173345 6.4183070785 -1.1313840682
345 1 61.7628251769 4.2788726024 0.6202577954
346 1 65.468424929 6.4183070785 0.6106006142
347 1 60.5244629545 6.4183070785 -0.2530698697
348 1 64.230079595 4.2788726024 -0.2580481496
349 1 66.6973341942 4.2788726024 -1.1363018472
350 1 70.4029346707 6.4183070785 -1.1457605418
351 1 69.1740419985 4.2788726024 0.6057425547
352 1 72.879642837 6.4183070785 0.596385343
353 1 67.9356796998 6.4183070785 -0.2676068499
354 1 71.6412969788 4.2788726024 -0.2724060097
355 1 74.10855215 4.2788726024 -1.1505017549
356 1 77.8141537415 6.4183070785 -1.1596516545
357 1 76.585260526 4.2788726024 0.591701095
358 1 80.2908661299 6.4183070785 0.5826569386
359 1 75.3468981892 6.4183070785 -0.2816602802
360 1 79.0525160877 4.2788726024 -0.2862886877
361 1 81.5197754714 4.2788726024 -1.164225413
362 1 85.2253782066 6.4183070785 -1.1730540706
363 1 83.9964844192 4.2788726024 0.578136552
364 1 87.7020875547 6.4183070785 0.5694175453
365 1 82.758122073 6.4183070785 -0.2952257477
366 1 86.4637405529 4.2788726024 -0.2996941251
367 1 88.9309968677 4.2788726024 -1.1774719448
368 1 92.6366008132 6.4183070785 -1.1859681808
369 1 91.4077063969 4.2788726024 0.5650485826
370 1 95.1133107428 6.4183070785 0.5566653712
371 1 90.1693440792 6.4183070785 -0.3083023183
372 1 93.8749630929 4.2788726024 -0.3126240373
373 1 96.3422199794 4.2788726024 -1.1902444382
374 1 100.0478251545 6.4183070785 -1.1983987219
375 1 98.8189300614 4.2788726024 0.5524326691
376 1 102.5245392966 6.4183070785 0.5443941454
377 1 97.5805678581 6.4183070785 -0.3208932422
378 1 101.2861873292 4.2788726024 -0.3250843808
379 1 103.7534484093 4.2788726024 -1.2025504131
380 1 107.4590548425 6.4183070785 -1.2103552915
381 1 106.2301590536 4.2788726024 0.5402796909
382 1 109.9357659061 6.4183070785 0.5325924976
383 1 104.9917969743 6.4183070785 -0.3330064107
384 1 108.6974168552 4.2788726024 -0.3370859544
385 1 111.1646748378 4.2788726024 -1.214402364
386 1 114.8702825576 6.4183070785 -1.2218529001
387 1 113.6413860158 4.2788726024 0.5285753802
388 1 117.346994155 6.4183070785 0.5212435585
389 1 112.4030241365 6.4183070785 -0.3446549954
390 1 116.1086443416 4.2788726024 -0.348644836
391 1 118.5759028389 4.2788726024 -1.2258182086
392 1 122.2815118452 6.4183070785 -1.2329123821
393 1 121.052614522 4.2788726024 0.5172999323
394 1 124.7582239574 6.4183070785 0.5103244353
395 1 119.8142529191 6.4183070785 -0.3558578096
396 1 123.5198733529 4.2788726024 -0.3597827176
397 1 125.9871359769 4.2788726024 -1.2368216214
398 1 129.692746251 6.4183070785 -1.2435607189
399 1 128.4638481271 4.2788726024 0.5064277098
400 1 132.16945883 6.4183070785 0.4998060593
401 1 127.2254868388 6.4183070785 -0.3666398242
402 1 130.9311074154 4.2788726024 -0.3705272763
403 1 133.3983668468 4.2788726024 -1.2474422429
404 1 137.1039783978 6.4183070785 -1.2538312107
405 1 135.8750794353 4.2788726024 0.4959270608
406 1 139.5806913962 6.4183070785 0.489653024
407 1 134.6367185377 6.4183070785 -0.3770321661
408 1 138.3423391335 4.2788726024 -0.3809121366
409 1 140.8095989746 4.2788726024 -1.2577157178
410 1 144.5152117552 6.4183070785 -1.263763429
411 1 143.2863119443 4.2788726024 0.4857603394
412 1 146.9919251252 6.4183070785 0.4798237277
413 1 142.0479515138 6.4183070785 -0.3870723578
414 1 145.7535720142 4.2788726024 -0.390976908
415 1 148.2208358392 4.2788726024 -1.267683581
416 1 151.926449792 6.4183070785 -1.2734029593
417 1 150.6975491425 4.2788726024 0.4758841616
418 1 154.4031634766 6.4183070785 0.4702706504
419 1 149.4591892171 6.4183070785 -0.396804031
420 1 153.1648095268 4.2788726024 -0.4007668139
421 1 155.632069997 4.2788726024 -1.2773928189
422 1 159.3376850841 6.4183070785 -1.2828008861
423 1 158.1087835673 4.2788726024 0.4662498256
424 1 161.8143990165 6.4183070785 0.4609410493
425 1 156.8704242327 6.4183070785 -0.406276507
426 1 160.5760441994 4.2788726024 -0.4103322048
427 1 163.0433048983 4.2788726024 -1.2868953357
428 1 166.7489210336 6.4183070785 -1.2920130976
429 1 165.5200186782 4.2788726024 0.4568039592
430 1 169.2256351472 6.4183070785 0.4517776446
431 1 164.2816600013 6.4183070785 -0.4155441586
432 1 167.9872794914 4.2788726024 -0.4197277776
433 1 170.4545439931 4.2788726024 -1.2962470863
434 1 174.1601610816 6.4183070785 -1.3010992558
435 1 172.9312579064 4.2788726024 0.4474894547
436 1 176.6368752808 6.4183070785 0.4427197258
437 1 171.6928999061 6.4183070785 -0.4246655233
438 1 175.3985188245 4.2788726024 -0.4290116694
439 1 177.8657797712 4.2788726024 -1.3055071038
440 1 181.571397727 6.4183070785 -1.3101217204
441 1 180.3424937417 4.2788726024 0.4382465354
442 1 184.0481119548 6.4183070785 0.4337043807
443 1 179.1041364943 6.4183070785 -0.4337021886
444 1 182.8097547074 4.2788726024 -0.4382443242
445 1 185.2770156636 4.2788726024 -1.3147363275
446 1 188.9826343628 6.4183070785 -1.319144185
447 1 187.7537296247 4.2788726024 0.4290138805
448 1 191.4593485431 6.4183070785 0.4246677249
449 1 186.5153731684 6.4183070785 -0.4427175338
450 1 190.2209905522 4.2788726024 -0.4474872437
451 1 192.6882514418 4.2788726024 -1.3239963355
452 1 196.3938744011 6.4183070785 -1.3282303432
453 1 195.1649689576 4.2788726024 0.4197299982
454 1 198.8705884574 6.4183070785 0.4155463697
455 1 193.9266133115 6.4183070785 -0.451775443
456 1 197.6322297709 4.2788726024 -0.4568017291
457 1 200.0994905365 4.2788726024 -1.3333480765
458 1 203.8051103507 6.4183070785 -1.3374425357
459 1 202.5762042497 4.2788726024 0.4103344445
460 1 206.2818242164 6.4183070785 0.4062787372
461 1 201.3378494326 6.4183070785 -0.4609388286
462 1 205.0434648819 4.2788726024 -0.4662475763
463 1 207.5107254377 4.2788726024 -1.3428505647
464 1 211.2163456428 6.4183070785 -1.3468404434
465 1 209.9874389318 4.2788726024 0.4007690726
466 1 213.6930592321 6.4183070785 0.3968062898
467 1 208.7490849726 6.4183070785 -0.4702684203
468 1 212.4546993161 4.2788726024 -0.4758818933
469 1 214.9219596052 4.2788726024 -1.3525597835
470 1 218.6275836892 6.4183070785 -1.3564799451
471 1 217.3986764349 4.2788726024 0.3909791859
472 1 221.104296945 6.4183070785 0.3870746451
473 1 216.1603233335 6.4183070785 -0.4798214594
474 1 219.8659365143 4.2788726024 -0.485758052
475 1 222.3331964698 4.2788726024 -1.3625276181
476 1 226.0388170465 6.4183070785 -1.3664121349
477 1 224.8099093157 4.2788726024 0.3809144526
478 1 228.515529921 6.4183070785 0.3770344821
479 1 223.5715570528 6.4183070785 -0.4896507366
480 1 227.2771690234 4.2788726024 -0.4959247258
481 1 229.7444285881 4.2788726024 -1.3728010645
482 1 233.4500491838 6.4183070785 -1.3766825885
483 1 232.2211410337 4.2788726024 0.3705296304
484 1 235.9267616104 6.4183070785 0.3666421687
485 1 230.9827896286 6.4183070785 -0.4998037243
486 1 234.688400322 4.2788726024 -0.5064253461
487 1 237.1556594674 4.2788726024 -1.3834216478
488 1 240.8612835895 6.4183070785 -1.3873308776
489 1 239.6323751058 4.2788726024 0.3597851097
490 1 243.33799553 6.4183070785 0.3558602114
491 1 238.3940245014 6.4183070785 -0.5103220717
492 1 242.0996339271 4.2788726024 -0.5172975306
493 1 244.5668925959 4.2788726024 -1.394425013
494 1 248.2725128772 6.4183070785 -1.398390312
495 1 247.0436041076 4.2788726024 0.3486472662
496 1 250.7492243125 6.4183070785 0.3446574257
497 1 245.8052542941 6.4183070785 -0.5212411472
498 1 249.5108624428 4.2788726024 -0.5285729213
499 1 251.978120597 4.2788726024 -1.4058408195
500 1 255.6837406019 6.4183070785 -1.4098878634
501 1 254.4548315939 4.2788726024 0.3370884323
502 1 258.1604514749 6.4183070785 0.3330088982
503 1 253.216482543 6.4183070785 -0.5325900483
504 1 256.922089405 4.2788726024 -0.5402771938
505 1 259.3893470254 4.2788726024 -1.4176927227
506 1 263.0949702803 6.4183070785 -1.4218444043
507 1 261.8660611294 4.2788726024 0.325086897
508 1 265.571680591 6.4183070785 0.3208957774
509 1 260.6277091621 6.4183070785 -0.5443916389
510 1 264.3333183878 4.2788726024 -0.5524301341
511 1 266.8005754649 4.2788726024 -1.4299986499
512 1 270.5061946215 6.4183070785 -1.4342748978
513 1 269.2772853658 4.2788726024 0.312626601
514 1 272.98290437 6.4183070785 0.3083049011
515 1 268.0389377063 6.4183070785 -0.5566628171
516 1 271.7445420618 4.2788726024 -0.5650459998
517 1 274.2117985671 4.2788726024 -1.4427710957
518 1 277.9174172282 6.4183070785 -1.4471889509
519 1 276.6885079058 4.2788726024 0.2996967555
520 1 280.3941263762 6.4183070785 0.2952283781
521 1 275.4501608944 6.4183070785 -0.5694149434
522 1 279.1557640299 4.2788726024 -0.5781339216
523 1 281.623019973 4.2788726024 -1.4560175798
524 1 285.3286416933 6.4183070785 -1.4605913193
525 1 284.0997323709 4.2788726024 0.2862913563
526 1 287.80535026 6.4183070785 0.2816629583
527 1 282.8613823192 6.4183070785 -0.5826542795
528 1 286.5669879232 4.2788726024 -0.5916984074
529 1 289.0342432849 4.2788726024 -1.4697411904
530 1 292.7398607737 6.4183070785 -1.4744823748
531 1 291.5109514702 4.2788726024 0.2724087259
532 1 295.2165687588 6.4183070785 0.2676095853
533 1 290.2726056121 6.4183070785 -0.5963826458
534 1 293.9782064507 4.2788726024 -0.6057398193
535 1 296.44546125 4.2788726024 -1.4839410408
536 1 300.1510781003 6.4183070785 -1.4888588008
537 1 298.9221688636 4.2788726024 0.2580509135
538 1 302.6277855042 6.4183070785 0.2530726622
539 1 297.6838235297 6.4183070785 -0.6105978598
540 1 301.3894232722 4.2788726024 -0.6202550123
541 1 303.8566774997 4.2788726024 -1.4986129092
542 1 307.5622973235 6.4183070785 -1.5037141257
543 1 306.3333845509 4.2788726024 0.2432231513
544 1 310.0390041555 6.4183070785 0.2380596326
545 1 305.0950396935 6.4183070785 -0.6252944318
546 1 308.8006420475 4.2788726024 -0.6352377725
547 1 311.2678957223 4.2788726024 -1.5137497046
548 1 314.9735112286 6.4183070785 -1.5190391907
549 1 313.7446022208 4.2788726024 0.2279333785
550 1 317.4502174984 6.4183070785 0.2225803607
551 1 312.5062577827 6.4183070785 -0.6404640795
552 1 316.2118555333 4.2788726024 -0.6506793981
553 1 318.6791086553 4.2788726024 -1.5293419821
554 1 322.3847234849 6.4183070785 -1.5348228353
555 1 321.15581462 4.2788726024 0.2121917072
556 1 324.8614292114 6.4183070785 0.2066466741
557 1 319.9174705822 6.4183070785 -0.656096224
558 1 323.6230673894 4.2788726024 -0.6665691576
559 1 326.0903199871 4.2788726024 -1.5453784478
560 1 329.7959377522 6.4183070785 -1.5510521549
561 1 328.5670254276 4.2788726024 0.1960099458
562 1 332.2726429546 6.4183070785 0.1902718683
563 1 327.3286817521 6.4183070785 -0.6721784848
564 1 331.0342813231 4.2788726024 -0.6828947373
565 1 333.5015334061 4.2788726024 -1.5618463496
566 1 337.2071468349 6.4183070785 -1.567713044
567 1 335.9782383416 4.2788726024 0.179401285
568 1 339.683851532 6.4183070785 0.1734704203
569 1 334.7398949805 6.4183070785 -0.6886971566
570 1 338.4454900911 4.2788726024 -0.6996425941
571 1 340.9127416786 4.2788726024 -1.5787318013
572 1 344.6183544211 6.4183070785 -1.5847905109
573 1 343.3894461184 4.2788726024 0.1623798587
574 1 347.0950586321 6.4183070785 0.1562575315
575 1 342.1511030624 6.4183070785 -0.7056374671
576 1 345.8566973819 4.2788726024 -0.7167983368
577 1 348.3239484929 4.2788726024 -1.5960202019
578 1 352.0295641804 6.4183070785 -1.602269011
579 1 350.8006524657 4.2788726024 0.1449604871
580 1 354.5062679244 6.4183070785 0.1386488802
581 1 349.562309667 6.4183070785 -0.722984043
582 1 353.267906903 4.2788726024 -0.7343470114
583 1 355.7351575564 4.2788726024 -1.6136964641
584 1 359.4407689169 6.4183070785 -1.6201326279
585 1 358.2118610623 4.2788726024 0.1271583432
586 1 361.917472213 6.4183070785 0.1206604395
587 1 356.9735184922 6.4183070785 -0.7407210635
588 1 360.6791114202 4.2788726024 -0.7522733022
589 1 -0.003584633 8.5577415641 -0.9936100785
590 1 3.7020078377 10.6971760402 -1.0052877509
591 1 2.4731185869 8.5577415641 0.747161297
592 1 6.1787112673 10.6971760402 0.7355444878
593 1 1.2347575749 10.6971760402 -0.1258323643
594 1 4.9403689259 8.5577415641 -0.1322717971
595 1 7.407619427 8.5577415641 -1.0116630707
596 1 11.1132125743 10.6971760402 -1.0231538363
597 1 9.8843230948 8.5577415641 0.7292337195
598 1 13.589920102 10.6971760402 0.717808144
599 1 8.6459618446 10.6971760402 -0.1438263042
600 1 12.3515775415 8.5577415641 -0.1500721207
601 1 14.8188285095 8.5577415641 -1.0293342912
602 1 18.5244223621 10.6971760402 -1.0406249118
603 1 17.2955326444 8.5577415641 0.7116934318
604 1 21.0011267543 10.6971760402 0.7004725854
605 1 16.0571711463 10.6971760402 -0.1614309622
606 1 19.7627839269 8.5577415641 -0.1674796074
607 1 22.230035381 8.5577415641 -1.0466071566
608 1 25.9356300151 10.6971760402 -1.0576837462
609 1 24.7067400114 8.5577415641 0.6945570271
610 1 28.4123349123 10.6971760402 0.6835549485
611 1 23.4683783037 10.6971760402 -0.1786291165
612 1 27.1739917896 8.5577415641 -0.1844777407
613 1 29.6412437488 8.5577415641 -1.0634652171
614 1 33.346839212 10.6971760402 -1.0743133651
615 1 32.1179488843 8.5577415641 0.6778408122
616 1 35.8235482647 10.6971760402 0.6670721026
617 1 30.8795869765 10.6971760402 -0.1954036688
618 1 34.5852048273 8.5577415641 -0.2010503373
619 1 37.0524573108 8.5577415641 -1.0798924609
620 1 40.7580536414 10.6971760402 -1.0904972613
621 1 39.5291629801 8.5577415641 0.6615606462
622 1 43.2347596156 10.6971760402 0.6510403165
623 1 38.2908008625 10.6971760402 -0.2117379406
624 1 41.9964158257 8.5577415641 -0.217181767
625 1 44.4636688428 8.5577415641 -1.0958735055
626 1 48.1692661169 10.6971760402 -1.1062197283
627 1 46.9403750648 8.5577415641 0.6457315688
628 1 50.6459726629 10.6971760402 0.6354749728
629 1 45.7020127757 10.6971760402 -0.2276158915
630 1 49.4076284536 8.5577415641 -0.2328573143
631 1 51.8748820426 8.5577415641 -1.1113940263
632 1 55.5804802984 10.6971760402 -1.1214662222
633 1 54.3515888269 8.5577415641 0.6303675232
634 1 58.0571910571 10.6971760402 0.6203900912
635 1 53.1132263853 10.6971760402 -0.2430225585
636 1 56.8188464283 8.5577415641 -0.2480635314
637 1 59.2861005797 8.5577415641 -1.1264410996
638 1 62.9916998742 10.6971760402 -1.1362238192
639 1 61.7628079454 8.5577415641 0.6154808231
640 1 65.4684076022 10.6971760402 0.6057979853
641 1 60.5244453704 10.6971760402 -0.2579444459
642 1 64.2300624875 8.5577415641 -0.2627886859
643 1 66.6973172296 8.5577415641 -1.1410036698
644 1 70.4029176393 10.6971760402 -1.1504817118
645 1 69.1740251862 8.5577415641 0.6010818285
646 1 72.8796259676 10.6971760402 0.5917086338
647 1 67.9356625159 10.6971760402 -0.2723699455
648 1 71.6412803191 8.5577415641 -0.2770232472
649 1 74.1085356618 8.5577415641 -1.1550730163
650 1 77.8141372152 10.6971760402 -1.1642317224
651 1 76.5852442093 8.5577415641 0.5871783163
652 1 80.2908497943 10.6971760402 0.5781291752
653 1 75.3468814914 10.6971760402 -0.2862899744
654 1 79.0524999522 8.5577415641 -0.2907603914
655 1 81.519759536 8.5577415641 -1.1686434206
656 1 85.2253622808 10.6971760402 -1.1774689808
657 1 83.996468684 8.5577415641 0.573774928
658 1 87.7020718481 10.6971760402 0.5650632885
659 1 82.7581059375 10.6971760402 -0.299698471
660 1 86.4637250274 8.5577415641 -0.3039966395
661 1 88.9309815709 8.5577415641 -1.1817125765
662 1 92.6365855737 10.6971760402 -1.1901924578